 Entering Link 1 = C:\Gaussian\l1.exe PID=      3456.
  
 Copyright (c) 1988-2017, Gaussian, Inc.  All Rights Reserved.
  
 This is part of the Gaussian(R) 16 program.  It is based on
 the Gaussian(R) 09 system (copyright 2009, Gaussian, Inc.),
 the Gaussian(R) 03 system (copyright 2003, Gaussian, Inc.),
 the Gaussian(R) 98 system (copyright 1998, Gaussian, Inc.),
 the Gaussian(R) 94 system (copyright 1995, Gaussian, Inc.),
 the Gaussian 92(TM) system (copyright 1992, Gaussian, Inc.),
 the Gaussian 90(TM) system (copyright 1990, Gaussian, Inc.),
 the Gaussian 88(TM) system (copyright 1988, Gaussian, Inc.),
 the Gaussian 86(TM) system (copyright 1986, Carnegie Mellon
 University), and the Gaussian 82(TM) system (copyright 1983,
 Carnegie Mellon University). Gaussian is a federally registered
 trademark of Gaussian, Inc.
  
 This software contains proprietary and confidential information,
 including trade secrets, belonging to Gaussian, Inc.
  
 This software is provided under written license and may be
 used, copied, transmitted, or stored only in accord with that
 written license.
  
 The following legend is applicable only to US Government
 contracts under FAR:
  
                    RESTRICTED RIGHTS LEGEND
  
 Use, reproduction and disclosure by the US Government is
 subject to restrictions as set forth in subparagraphs (a)
 and (c) of the Commercial Computer Software - Restricted
 Rights clause in FAR 52.227-19.
  
 Gaussian, Inc.
 340 Quinnipiac St., Bldg. 40, Wallingford CT 06492
  
  
 ---------------------------------------------------------------
 Warning -- This program may not be used in any manner that
 competes with the business of Gaussian, Inc. or will provide
 assistance to any competitor of Gaussian, Inc.  The licensee
 of this program is prohibited from giving any competitor of
 Gaussian, Inc. access to this program.  By using this program,
 the user acknowledges that Gaussian, Inc. is engaged in the
 business of creating and licensing software in the field of
 computational chemistry and represents and warrants to the
 licensee that it is not a competitor of Gaussian, Inc. and that
 it will not use this program in any manner prohibited above.
 ---------------------------------------------------------------
  

 Cite this work as:
 Gaussian 16, Revision B.01,
 M. J. Frisch, G. W. Trucks, H. B. Schlegel, G. E. Scuseria, 
 M. A. Robb, J. R. Cheeseman, G. Scalmani, V. Barone, 
 G. A. Petersson, H. Nakatsuji, X. Li, M. Caricato, A. V. Marenich, 
 J. Bloino, B. G. Janesko, R. Gomperts, B. Mennucci, H. P. Hratchian, 
 J. V. Ortiz, A. F. Izmaylov, J. L. Sonnenberg, D. Williams-Young, 
 F. Ding, F. Lipparini, F. Egidi, J. Goings, B. Peng, A. Petrone, 
 T. Henderson, D. Ranasinghe, V. G. Zakrzewski, J. Gao, N. Rega, 
 G. Zheng, W. Liang, M. Hada, M. Ehara, K. Toyota, R. Fukuda, 
 J. Hasegawa, M. Ishida, T. Nakajima, Y. Honda, O. Kitao, H. Nakai, 
 T. Vreven, K. Throssell, J. A. Montgomery, Jr., J. E. Peralta, 
 F. Ogliaro, M. J. Bearpark, J. J. Heyd, E. N. Brothers, K. N. Kudin, 
 V. N. Staroverov, T. A. Keith, R. Kobayashi, J. Normand, 
 K. Raghavachari, A. P. Rendell, J. C. Burant, S. S. Iyengar, 
 J. Tomasi, M. Cossi, J. M. Millam, M. Klene, C. Adamo, R. Cammi, 
 J. W. Ochterski, R. L. Martin, K. Morokuma, O. Farkas, 
 J. B. Foresman, and D. J. Fox, Gaussian, Inc., Wallingford CT, 2016.
 
 ******************************************
 Gaussian 16:  EM64W-G16RevB.01 16-Dec-2017
                14-Mar-2023 
 ******************************************
 %chk=C:\Users\tkmeldrum\Documents\MDworking\C14H30.chk
 -----------------------------------
 # opt b3lyp/6-31g geom=connectivity
 -----------------------------------
 1/18=20,19=15,26=3,38=1,57=2/1,3;
 2/9=110,12=2,17=6,18=5,40=1/2;
 3/5=1,6=6,11=2,25=1,30=1,71=1,74=-5/1,2,3;
 4//1;
 5/5=2,38=5/2;
 6/7=2,8=2,9=2,10=2,28=1/1;
 7//1,2,3,16;
 1/18=20,19=15,26=3/3(2);
 2/9=110/2;
 99//99;
 2/9=110/2;
 3/5=1,6=6,11=2,25=1,30=1,71=1,74=-5/1,2,3;
 4/5=5,16=3,69=1/1;
 5/5=2,38=5/2;
 7//1,2,3,16;
 1/18=20,19=15,26=3/3(-5);
 2/9=110/2;
 6/7=2,8=2,9=2,10=2,19=2,28=1/1;
 99/9=1/99;
 -------------------
 Title Card Required
 -------------------
 Symbolic Z-matrix:
 Charge =  0 Multiplicity = 1
 C                    -9.5912   -3.49082   0.00015 
 H                    -9.23613  -4.50019   0.0014 
 H                    -9.23293  -2.98779  -0.87365 
 H                    -10.66119  -3.48912  -0.00083 
 C                    -9.07785  -2.76451   1.25735 
 H                    -9.43291  -1.75514   1.25609 
 H                    -9.43612  -3.26754   2.13114 
 C                    -7.53786  -2.76696   1.25875 
 H                    -7.17959  -2.26393   0.38496 
 H                    -7.18279  -3.77633   1.26001 
 C                    -7.02451  -2.04065   2.51595 
 H                    -7.38278  -2.54368   3.38974 
 H                    -7.37957  -1.03128   2.51469 
 C                    -5.48452  -2.0431    2.51735 
 H                    -5.12625  -1.54007   1.64356 
 H                    -5.12945  -3.05247   2.51861 
 C                    -4.97117  -1.31679   3.77456 
 H                    -5.32944  -1.81981   4.64835 
 H                    -5.32623  -0.30742   3.7733 
 C                    -3.43117  -1.31924   3.77596 
 H                    -3.07291  -0.81621   2.90217 
 H                    -3.07611  -2.32861   3.77722 
 C                    -2.91783  -0.59293   5.03316 
 H                    -3.27609  -1.09595   5.90695 
 H                    -3.27289   0.41644   5.0319 
 C                    -1.37783  -0.59538   5.03456 
 H                    -1.01957  -0.09235   4.16077 
 H                    -1.02277  -1.60475   5.03582 
 C                    -0.86449   0.13093   6.29176 
 H                    -1.22275  -0.37209   7.16556 
 H                    -1.21955   1.1403    6.29051 
 C                     0.67551   0.12849   6.29317 
 H                     1.03377   0.63151   5.41937 
 H                     1.03057  -0.88089   6.29442 
 C                     1.18885   0.85479   7.55037 
 H                     0.83059   0.35177   8.42416 
 H                     0.83379   1.86417   7.54911 
 C                     2.72885   0.85235   7.55177 
 H                     3.08711   1.35537   6.67798 
 H                     3.08391  -0.15702   7.55303 
 C                     3.24219   1.57866   8.80897 
 H                     2.88393   1.07563   9.68276 
 H                     4.31219   1.57696   8.80995 
 H                     2.88713   2.58803   8.80771 
 

 GradGradGradGradGradGradGradGradGradGradGradGradGradGradGradGradGradGrad
 Berny optimization.
 Initialization pass.
                           ----------------------------
                           !    Initial Parameters    !
                           ! (Angstroms and Degrees)  !
 --------------------------                            --------------------------
 ! Name  Definition              Value          Derivative Info.                !
 --------------------------------------------------------------------------------
 ! R1    R(1,2)                  1.07           estimate D2E/DX2                !
 ! R2    R(1,3)                  1.07           estimate D2E/DX2                !
 ! R3    R(1,4)                  1.07           estimate D2E/DX2                !
 ! R4    R(1,5)                  1.54           estimate D2E/DX2                !
 ! R5    R(5,6)                  1.07           estimate D2E/DX2                !
 ! R6    R(5,7)                  1.07           estimate D2E/DX2                !
 ! R7    R(5,8)                  1.54           estimate D2E/DX2                !
 ! R8    R(8,9)                  1.07           estimate D2E/DX2                !
 ! R9    R(8,10)                 1.07           estimate D2E/DX2                !
 ! R10   R(8,11)                 1.54           estimate D2E/DX2                !
 ! R11   R(11,12)                1.07           estimate D2E/DX2                !
 ! R12   R(11,13)                1.07           estimate D2E/DX2                !
 ! R13   R(11,14)                1.54           estimate D2E/DX2                !
 ! R14   R(14,15)                1.07           estimate D2E/DX2                !
 ! R15   R(14,16)                1.07           estimate D2E/DX2                !
 ! R16   R(14,17)                1.54           estimate D2E/DX2                !
 ! R17   R(17,18)                1.07           estimate D2E/DX2                !
 ! R18   R(17,19)                1.07           estimate D2E/DX2                !
 ! R19   R(17,20)                1.54           estimate D2E/DX2                !
 ! R20   R(20,21)                1.07           estimate D2E/DX2                !
 ! R21   R(20,22)                1.07           estimate D2E/DX2                !
 ! R22   R(20,23)                1.54           estimate D2E/DX2                !
 ! R23   R(23,24)                1.07           estimate D2E/DX2                !
 ! R24   R(23,25)                1.07           estimate D2E/DX2                !
 ! R25   R(23,26)                1.54           estimate D2E/DX2                !
 ! R26   R(26,27)                1.07           estimate D2E/DX2                !
 ! R27   R(26,28)                1.07           estimate D2E/DX2                !
 ! R28   R(26,29)                1.54           estimate D2E/DX2                !
 ! R29   R(29,30)                1.07           estimate D2E/DX2                !
 ! R30   R(29,31)                1.07           estimate D2E/DX2                !
 ! R31   R(29,32)                1.54           estimate D2E/DX2                !
 ! R32   R(32,33)                1.07           estimate D2E/DX2                !
 ! R33   R(32,34)                1.07           estimate D2E/DX2                !
 ! R34   R(32,35)                1.54           estimate D2E/DX2                !
 ! R35   R(35,36)                1.07           estimate D2E/DX2                !
 ! R36   R(35,37)                1.07           estimate D2E/DX2                !
 ! R37   R(35,38)                1.54           estimate D2E/DX2                !
 ! R38   R(38,39)                1.07           estimate D2E/DX2                !
 ! R39   R(38,40)                1.07           estimate D2E/DX2                !
 ! R40   R(38,41)                1.54           estimate D2E/DX2                !
 ! R41   R(41,42)                1.07           estimate D2E/DX2                !
 ! R42   R(41,43)                1.07           estimate D2E/DX2                !
 ! R43   R(41,44)                1.07           estimate D2E/DX2                !
 ! A1    A(2,1,3)              109.4712         estimate D2E/DX2                !
 ! A2    A(2,1,4)              109.4712         estimate D2E/DX2                !
 ! A3    A(2,1,5)              109.4712         estimate D2E/DX2                !
 ! A4    A(3,1,4)              109.4712         estimate D2E/DX2                !
 ! A5    A(3,1,5)              109.4712         estimate D2E/DX2                !
 ! A6    A(4,1,5)              109.4712         estimate D2E/DX2                !
 ! A7    A(1,5,6)              109.4712         estimate D2E/DX2                !
 ! A8    A(1,5,7)              109.4712         estimate D2E/DX2                !
 ! A9    A(1,5,8)              109.4712         estimate D2E/DX2                !
 ! A10   A(6,5,7)              109.4712         estimate D2E/DX2                !
 ! A11   A(6,5,8)              109.4712         estimate D2E/DX2                !
 ! A12   A(7,5,8)              109.4712         estimate D2E/DX2                !
 ! A13   A(5,8,9)              109.4712         estimate D2E/DX2                !
 ! A14   A(5,8,10)             109.4712         estimate D2E/DX2                !
 ! A15   A(5,8,11)             109.4712         estimate D2E/DX2                !
 ! A16   A(9,8,10)             109.4712         estimate D2E/DX2                !
 ! A17   A(9,8,11)             109.4712         estimate D2E/DX2                !
 ! A18   A(10,8,11)            109.4712         estimate D2E/DX2                !
 ! A19   A(8,11,12)            109.4712         estimate D2E/DX2                !
 ! A20   A(8,11,13)            109.4712         estimate D2E/DX2                !
 ! A21   A(8,11,14)            109.4712         estimate D2E/DX2                !
 ! A22   A(12,11,13)           109.4712         estimate D2E/DX2                !
 ! A23   A(12,11,14)           109.4712         estimate D2E/DX2                !
 ! A24   A(13,11,14)           109.4712         estimate D2E/DX2                !
 ! A25   A(11,14,15)           109.4712         estimate D2E/DX2                !
 ! A26   A(11,14,16)           109.4712         estimate D2E/DX2                !
 ! A27   A(11,14,17)           109.4712         estimate D2E/DX2                !
 ! A28   A(15,14,16)           109.4712         estimate D2E/DX2                !
 ! A29   A(15,14,17)           109.4712         estimate D2E/DX2                !
 ! A30   A(16,14,17)           109.4712         estimate D2E/DX2                !
 ! A31   A(14,17,18)           109.4712         estimate D2E/DX2                !
 ! A32   A(14,17,19)           109.4712         estimate D2E/DX2                !
 ! A33   A(14,17,20)           109.4712         estimate D2E/DX2                !
 ! A34   A(18,17,19)           109.4712         estimate D2E/DX2                !
 ! A35   A(18,17,20)           109.4712         estimate D2E/DX2                !
 ! A36   A(19,17,20)           109.4712         estimate D2E/DX2                !
 ! A37   A(17,20,21)           109.4712         estimate D2E/DX2                !
 ! A38   A(17,20,22)           109.4712         estimate D2E/DX2                !
 ! A39   A(17,20,23)           109.4712         estimate D2E/DX2                !
 ! A40   A(21,20,22)           109.4712         estimate D2E/DX2                !
 ! A41   A(21,20,23)           109.4712         estimate D2E/DX2                !
 ! A42   A(22,20,23)           109.4712         estimate D2E/DX2                !
 ! A43   A(20,23,24)           109.4712         estimate D2E/DX2                !
 ! A44   A(20,23,25)           109.4712         estimate D2E/DX2                !
 ! A45   A(20,23,26)           109.4712         estimate D2E/DX2                !
 ! A46   A(24,23,25)           109.4712         estimate D2E/DX2                !
 ! A47   A(24,23,26)           109.4712         estimate D2E/DX2                !
 ! A48   A(25,23,26)           109.4712         estimate D2E/DX2                !
 ! A49   A(23,26,27)           109.4712         estimate D2E/DX2                !
 ! A50   A(23,26,28)           109.4712         estimate D2E/DX2                !
 ! A51   A(23,26,29)           109.4712         estimate D2E/DX2                !
 ! A52   A(27,26,28)           109.4712         estimate D2E/DX2                !
 ! A53   A(27,26,29)           109.4712         estimate D2E/DX2                !
 ! A54   A(28,26,29)           109.4712         estimate D2E/DX2                !
 ! A55   A(26,29,30)           109.4712         estimate D2E/DX2                !
 ! A56   A(26,29,31)           109.4712         estimate D2E/DX2                !
 ! A57   A(26,29,32)           109.4712         estimate D2E/DX2                !
 ! A58   A(30,29,31)           109.4712         estimate D2E/DX2                !
 ! A59   A(30,29,32)           109.4712         estimate D2E/DX2                !
 ! A60   A(31,29,32)           109.4712         estimate D2E/DX2                !
 ! A61   A(29,32,33)           109.4712         estimate D2E/DX2                !
 ! A62   A(29,32,34)           109.4712         estimate D2E/DX2                !
 ! A63   A(29,32,35)           109.4712         estimate D2E/DX2                !
 ! A64   A(33,32,34)           109.4712         estimate D2E/DX2                !
 ! A65   A(33,32,35)           109.4712         estimate D2E/DX2                !
 ! A66   A(34,32,35)           109.4712         estimate D2E/DX2                !
 ! A67   A(32,35,36)           109.4712         estimate D2E/DX2                !
 ! A68   A(32,35,37)           109.4712         estimate D2E/DX2                !
 ! A69   A(32,35,38)           109.4712         estimate D2E/DX2                !
 ! A70   A(36,35,37)           109.4712         estimate D2E/DX2                !
 ! A71   A(36,35,38)           109.4712         estimate D2E/DX2                !
 ! A72   A(37,35,38)           109.4712         estimate D2E/DX2                !
 ! A73   A(35,38,39)           109.4712         estimate D2E/DX2                !
 ! A74   A(35,38,40)           109.4712         estimate D2E/DX2                !
 ! A75   A(35,38,41)           109.4712         estimate D2E/DX2                !
 ! A76   A(39,38,40)           109.4712         estimate D2E/DX2                !
 ! A77   A(39,38,41)           109.4712         estimate D2E/DX2                !
 ! A78   A(40,38,41)           109.4712         estimate D2E/DX2                !
 ! A79   A(38,41,42)           109.4712         estimate D2E/DX2                !
 ! A80   A(38,41,43)           109.4712         estimate D2E/DX2                !
 ! A81   A(38,41,44)           109.4712         estimate D2E/DX2                !
 ! A82   A(42,41,43)           109.4712         estimate D2E/DX2                !
 ! A83   A(42,41,44)           109.4712         estimate D2E/DX2                !
 ! A84   A(43,41,44)           109.4712         estimate D2E/DX2                !
 ! D1    D(2,1,5,6)            180.0            estimate D2E/DX2                !
 ! D2    D(2,1,5,7)            -60.0            estimate D2E/DX2                !
 ! D3    D(2,1,5,8)             60.0            estimate D2E/DX2                !
 ! D4    D(3,1,5,6)             60.0            estimate D2E/DX2                !
 ! D5    D(3,1,5,7)            180.0            estimate D2E/DX2                !
 ! D6    D(3,1,5,8)            -60.0            estimate D2E/DX2                !
 ! D7    D(4,1,5,6)            -60.0            estimate D2E/DX2                !
 ! D8    D(4,1,5,7)             60.0            estimate D2E/DX2                !
 ! D9    D(4,1,5,8)            180.0            estimate D2E/DX2                !
 ! D10   D(1,5,8,9)             60.0            estimate D2E/DX2                !
 ! D11   D(1,5,8,10)           -60.0            estimate D2E/DX2                !
 ! D12   D(1,5,8,11)          -180.0            estimate D2E/DX2                !
 ! D13   D(6,5,8,9)            -60.0            estimate D2E/DX2                !
 ! D14   D(6,5,8,10)          -180.0            estimate D2E/DX2                !
 ! D15   D(6,5,8,11)            60.0            estimate D2E/DX2                !
 ! D16   D(7,5,8,9)           -180.0            estimate D2E/DX2                !
 ! D17   D(7,5,8,10)            60.0            estimate D2E/DX2                !
 ! D18   D(7,5,8,11)           -60.0            estimate D2E/DX2                !
 ! D19   D(5,8,11,12)           60.0            estimate D2E/DX2                !
 ! D20   D(5,8,11,13)          -60.0            estimate D2E/DX2                !
 ! D21   D(5,8,11,14)          180.0            estimate D2E/DX2                !
 ! D22   D(9,8,11,12)          180.0            estimate D2E/DX2                !
 ! D23   D(9,8,11,13)           60.0            estimate D2E/DX2                !
 ! D24   D(9,8,11,14)          -60.0            estimate D2E/DX2                !
 ! D25   D(10,8,11,12)         -60.0            estimate D2E/DX2                !
 ! D26   D(10,8,11,13)         180.0            estimate D2E/DX2                !
 ! D27   D(10,8,11,14)          60.0            estimate D2E/DX2                !
 ! D28   D(8,11,14,15)          60.0            estimate D2E/DX2                !
 ! D29   D(8,11,14,16)         -60.0            estimate D2E/DX2                !
 ! D30   D(8,11,14,17)         180.0            estimate D2E/DX2                !
 ! D31   D(12,11,14,15)        180.0            estimate D2E/DX2                !
 ! D32   D(12,11,14,16)         60.0            estimate D2E/DX2                !
 ! D33   D(12,11,14,17)        -60.0            estimate D2E/DX2                !
 ! D34   D(13,11,14,15)        -60.0            estimate D2E/DX2                !
 ! D35   D(13,11,14,16)        180.0            estimate D2E/DX2                !
 ! D36   D(13,11,14,17)         60.0            estimate D2E/DX2                !
 ! D37   D(11,14,17,18)         60.0            estimate D2E/DX2                !
 ! D38   D(11,14,17,19)        -60.0            estimate D2E/DX2                !
 ! D39   D(11,14,17,20)       -180.0            estimate D2E/DX2                !
 ! D40   D(15,14,17,18)       -180.0            estimate D2E/DX2                !
 ! D41   D(15,14,17,19)         60.0            estimate D2E/DX2                !
 ! D42   D(15,14,17,20)        -60.0            estimate D2E/DX2                !
 ! D43   D(16,14,17,18)        -60.0            estimate D2E/DX2                !
 ! D44   D(16,14,17,19)       -180.0            estimate D2E/DX2                !
 ! D45   D(16,14,17,20)         60.0            estimate D2E/DX2                !
 ! D46   D(14,17,20,21)         60.0            estimate D2E/DX2                !
 ! D47   D(14,17,20,22)        -60.0            estimate D2E/DX2                !
 ! D48   D(14,17,20,23)        180.0            estimate D2E/DX2                !
 ! D49   D(18,17,20,21)       -180.0            estimate D2E/DX2                !
 ! D50   D(18,17,20,22)         60.0            estimate D2E/DX2                !
 ! D51   D(18,17,20,23)        -60.0            estimate D2E/DX2                !
 ! D52   D(19,17,20,21)        -60.0            estimate D2E/DX2                !
 ! D53   D(19,17,20,22)       -180.0            estimate D2E/DX2                !
 ! D54   D(19,17,20,23)         60.0            estimate D2E/DX2                !
 ! D55   D(17,20,23,24)         60.0            estimate D2E/DX2                !
 ! D56   D(17,20,23,25)        -60.0            estimate D2E/DX2                !
 ! D57   D(17,20,23,26)       -180.0            estimate D2E/DX2                !
 ! D58   D(21,20,23,24)       -180.0            estimate D2E/DX2                !
 ! D59   D(21,20,23,25)         60.0            estimate D2E/DX2                !
 ! D60   D(21,20,23,26)        -60.0            estimate D2E/DX2                !
 ! D61   D(22,20,23,24)        -60.0            estimate D2E/DX2                !
 ! D62   D(22,20,23,25)       -180.0            estimate D2E/DX2                !
 ! D63   D(22,20,23,26)         60.0            estimate D2E/DX2                !
 ! D64   D(20,23,26,27)         60.0            estimate D2E/DX2                !
 ! D65   D(20,23,26,28)        -60.0            estimate D2E/DX2                !
 ! D66   D(20,23,26,29)       -180.0            estimate D2E/DX2                !
 ! D67   D(24,23,26,27)       -180.0            estimate D2E/DX2                !
 ! D68   D(24,23,26,28)         60.0            estimate D2E/DX2                !
 ! D69   D(24,23,26,29)        -60.0            estimate D2E/DX2                !
 ! D70   D(25,23,26,27)        -60.0            estimate D2E/DX2                !
 ! D71   D(25,23,26,28)       -180.0            estimate D2E/DX2                !
 ! D72   D(25,23,26,29)         60.0            estimate D2E/DX2                !
 ! D73   D(23,26,29,30)         60.0            estimate D2E/DX2                !
 ! D74   D(23,26,29,31)        -60.0            estimate D2E/DX2                !
 ! D75   D(23,26,29,32)       -180.0            estimate D2E/DX2                !
 ! D76   D(27,26,29,30)        180.0            estimate D2E/DX2                !
 ! D77   D(27,26,29,31)         60.0            estimate D2E/DX2                !
 ! D78   D(27,26,29,32)        -60.0            estimate D2E/DX2                !
 ! D79   D(28,26,29,30)        -60.0            estimate D2E/DX2                !
 ! D80   D(28,26,29,31)       -180.0            estimate D2E/DX2                !
 ! D81   D(28,26,29,32)         60.0            estimate D2E/DX2                !
 ! D82   D(26,29,32,33)         60.0            estimate D2E/DX2                !
 ! D83   D(26,29,32,34)        -60.0            estimate D2E/DX2                !
 ! D84   D(26,29,32,35)        180.0            estimate D2E/DX2                !
 ! D85   D(30,29,32,33)       -180.0            estimate D2E/DX2                !
 ! D86   D(30,29,32,34)         60.0            estimate D2E/DX2                !
 ! D87   D(30,29,32,35)        -60.0            estimate D2E/DX2                !
 ! D88   D(31,29,32,33)        -60.0            estimate D2E/DX2                !
 ! D89   D(31,29,32,34)       -180.0            estimate D2E/DX2                !
 ! D90   D(31,29,32,35)         60.0            estimate D2E/DX2                !
 ! D91   D(29,32,35,36)         60.0            estimate D2E/DX2                !
 ! D92   D(29,32,35,37)        -60.0            estimate D2E/DX2                !
 ! D93   D(29,32,35,38)       -180.0            estimate D2E/DX2                !
 ! D94   D(33,32,35,36)       -180.0            estimate D2E/DX2                !
 ! D95   D(33,32,35,37)         60.0            estimate D2E/DX2                !
 ! D96   D(33,32,35,38)        -60.0            estimate D2E/DX2                !
 ! D97   D(34,32,35,36)        -60.0            estimate D2E/DX2                !
 ! D98   D(34,32,35,37)       -180.0            estimate D2E/DX2                !
 ! D99   D(34,32,35,38)         60.0            estimate D2E/DX2                !
 ! D100  D(32,35,38,39)         60.0            estimate D2E/DX2                !
 ! D101  D(32,35,38,40)        -60.0            estimate D2E/DX2                !
 ! D102  D(32,35,38,41)        180.0            estimate D2E/DX2                !
 ! D103  D(36,35,38,39)        180.0            estimate D2E/DX2                !
 ! D104  D(36,35,38,40)         60.0            estimate D2E/DX2                !
 ! D105  D(36,35,38,41)        -60.0            estimate D2E/DX2                !
 ! D106  D(37,35,38,39)        -60.0            estimate D2E/DX2                !
 ! D107  D(37,35,38,40)        180.0            estimate D2E/DX2                !
 ! D108  D(37,35,38,41)         60.0            estimate D2E/DX2                !
 ! D109  D(35,38,41,42)         60.0            estimate D2E/DX2                !
 ! D110  D(35,38,41,43)       -180.0            estimate D2E/DX2                !
 ! D111  D(35,38,41,44)        -60.0            estimate D2E/DX2                !
 ! D112  D(39,38,41,42)       -180.0            estimate D2E/DX2                !
 ! D113  D(39,38,41,43)        -60.0            estimate D2E/DX2                !
 ! D114  D(39,38,41,44)         60.0            estimate D2E/DX2                !
 ! D115  D(40,38,41,42)        -60.0            estimate D2E/DX2                !
 ! D116  D(40,38,41,43)         60.0            estimate D2E/DX2                !
 ! D117  D(40,38,41,44)       -180.0            estimate D2E/DX2                !
 --------------------------------------------------------------------------------
 Trust Radius=3.00D-01 FncErr=1.00D-07 GrdErr=1.00D-06 EigMax=2.50D+02 EigMin=1.00D-04
 Number of steps in this run=    254 maximum allowed number of steps=    264.
 GradGradGradGradGradGradGradGradGradGradGradGradGradGradGradGradGradGrad

                          Input orientation:                          
 ---------------------------------------------------------------------
 Center     Atomic      Atomic             Coordinates (Angstroms)
 Number     Number       Type             X           Y           Z
 ---------------------------------------------------------------------
      1          6           0       -9.591196   -3.490820    0.000146
      2          1           0       -9.236135   -4.500191    0.001404
      3          1           0       -9.232933   -2.987794   -0.873646
      4          1           0      -10.661194   -3.489119   -0.000829
      5          6           0       -9.077853   -2.764510    1.257347
      6          1           0       -9.432914   -1.755139    1.256089
      7          1           0       -9.436117   -3.267536    2.131138
      8          6           0       -7.537856   -2.766959    1.258750
      9          1           0       -7.179592   -2.263933    0.384959
     10          1           0       -7.182794   -3.776330    1.260008
     11          6           0       -7.024512   -2.040650    2.515951
     12          1           0       -7.382776   -2.543676    3.389743
     13          1           0       -7.379574   -1.031278    2.514694
     14          6           0       -5.484515   -2.043098    2.517355
     15          1           0       -5.126251   -1.540072    1.643563
     16          1           0       -5.129454   -3.052469    2.518612
     17          6           0       -4.971172   -1.316789    3.774555
     18          1           0       -5.329435   -1.819815    4.648347
     19          1           0       -5.326233   -0.307418    3.773298
     20          6           0       -3.431174   -1.319237    3.775959
     21          1           0       -3.072911   -0.816211    2.902167
     22          1           0       -3.076113   -2.328608    3.777216
     23          6           0       -2.917831   -0.592928    5.033159
     24          1           0       -3.276095   -1.095954    5.906951
     25          1           0       -3.272893    0.416443    5.031902
     26          6           0       -1.377834   -0.595376    5.034563
     27          1           0       -1.019571   -0.092350    4.160771
     28          1           0       -1.022772   -1.604747    5.035820
     29          6           0       -0.864491    0.130933    6.291763
     30          1           0       -1.222754   -0.372093    7.165555
     31          1           0       -1.219552    1.140304    6.290506
     32          6           0        0.675507    0.128485    6.293167
     33          1           0        1.033770    0.631511    5.419375
     34          1           0        1.030568   -0.880886    6.294424
     35          6           0        1.188850    0.854795    7.550367
     36          1           0        0.830587    0.351768    8.424159
     37          1           0        0.833788    1.864166    7.549110
     38          6           0        2.728847    0.852347    7.551770
     39          1           0        3.087110    1.355373    6.677979
     40          1           0        3.083909   -0.157024    7.553028
     41          6           0        3.242191    1.578656    8.808971
     42          1           0        2.883928    1.075630    9.682763
     43          1           0        4.312189    1.576956    8.809946
     44          1           0        2.887129    2.588027    8.807714
 ---------------------------------------------------------------------
                    Distance matrix (angstroms):
                    1          2          3          4          5
     1  C    0.000000
     2  H    1.070000   0.000000
     3  H    1.070000   1.747303   0.000000
     4  H    1.070000   1.747303   1.747303   0.000000
     5  C    1.540000   2.148263   2.148263   2.148263   0.000000
     6  H    2.148263   3.024610   2.468846   2.468846   1.070000
     7  H    2.148263   2.468846   3.024610   2.468846   1.070000
     8  C    2.514809   2.732978   2.732978   3.444314   1.540000
     9  H    2.732978   3.062243   2.514810   3.710993   2.148263
    10  H    2.732978   2.514809   3.062243   3.710993   2.148263
    11  C    3.875582   4.154945   4.154945   4.653783   2.514810
    12  H    4.154945   4.329403   4.668704   4.810184   2.732978
    13  H    4.154945   4.668704   4.329403   4.810184   2.732978
    14  C    5.029619   5.142175   5.142175   5.935506   3.875582
    15  H    5.142175   5.324484   5.029619   6.094128   4.154945
    16  H    5.142175   5.029619   5.324484   6.094128   4.154945
    17  C    6.349583   6.523851   6.523851   7.165815   5.029619
    18  H    6.523851   6.636324   6.862497   7.268361   5.142175
    19  H    6.523851   6.862497   6.636324   7.268361   5.142175
    20  C    7.544428   7.619928   7.619928   8.440717   6.349583
    21  H    7.619928   7.744125   7.544428   8.553003   6.523851
    22  H    7.619928   7.544428   7.744125   8.553003   6.523851
    23  C    8.846627   8.972527   8.972527   9.679289   7.544428
    24  H    8.972527   9.054634   9.221685   9.755450   7.619928
    25  H    8.972526   9.221684   9.054634   9.755450   7.619928
    26  C   10.059238  10.115986  10.115986  10.950329   8.846627
    27  H   10.115986  10.209864  10.059238  11.037113   8.972527
    28  H   10.115986  10.059238  10.209865  11.037113   8.972527
    29  C   11.351517  11.449907  11.449907  12.193314  10.059238
    30  H   11.449907  11.514362  11.646184  12.253859  10.115986
    31  H   11.449907  11.646184  11.514362  12.253859  10.115986
    32  C   12.574047  12.619492  12.619492  13.461881  11.351517
    33  H   12.619491  12.694870  12.574047  13.532568  11.449907
    34  H   12.619492  12.574047  12.694870  13.532568  11.449907
    35  C   13.860000  13.940697  13.940697  14.707607  12.574047
    36  H   13.940697  13.993684  14.102350  14.757841  12.619492
    37  H   13.940697  14.102349  13.993684  14.757841  12.619491
    38  C   15.088857  15.126748  15.126748  15.974458  13.860000
    39  H   15.126748  15.189689  15.088857  16.034072  13.940697
    40  H   15.126748  15.088857  15.189690  16.034072  13.940697
    41  C   16.370425  16.438803  16.438803  17.222051  15.088857
    42  H   16.438803  16.483762  16.576112  17.264971  15.126748
    43  H   17.222051  17.264970  17.264970  18.096880  15.974458
    44  H   16.438802  16.576111  16.483761  17.264970  15.126748
                    6          7          8          9         10
     6  H    0.000000
     7  H    1.747303   0.000000
     8  C    2.148263   2.148263   0.000000
     9  H    2.468846   3.024610   1.070000   0.000000
    10  H    3.024610   2.468846   1.070000   1.747303   0.000000
    11  C    2.732978   2.732978   1.540000   2.148263   2.148263
    12  H    3.062243   2.514809   2.148263   3.024610   2.468846
    13  H    2.514810   3.062243   2.148263   2.468846   3.024610
    14  C    4.154945   4.154945   2.514809   2.732978   2.732978
    15  H    4.329403   4.668704   2.732978   2.514810   3.062243
    16  H    4.668704   4.329403   2.732978   3.062243   2.514809
    17  C    5.142175   5.142175   3.875582   4.154945   4.154945
    18  H    5.324484   5.029619   4.154945   4.668704   4.329403
    19  H    5.029619   5.324484   4.154945   4.329403   4.668704
    20  C    6.523851   6.523851   5.029619   5.142175   5.142175
    21  H    6.636324   6.862497   5.142175   5.029619   5.324484
    22  H    6.862497   6.636324   5.142175   5.324484   5.029619
    23  C    7.619928   7.619928   6.349583   6.523851   6.523851
    24  H    7.744125   7.544429   6.523851   6.862497   6.636325
    25  H    7.544428   7.744124   6.523851   6.636324   6.862497
    26  C    8.972527   8.972527   7.544428   7.619928   7.619928
    27  H    9.054634   9.221685   7.619928   7.544428   7.744125
    28  H    9.221685   9.054634   7.619928   7.744125   7.544429
    29  C   10.115986  10.115986   8.846627   8.972527   8.972527
    30  H   10.209865  10.059238   8.972527   9.221685   9.054634
    31  H   10.059238  10.209864   8.972526   9.054634   9.221685
    32  C   11.449907  11.449907  10.059238  10.115986  10.115986
    33  H   11.514362  11.646184  10.115986  10.059238  10.209865
    34  H   11.646184  11.514362  10.115986  10.209864  10.059238
    35  C   12.619492  12.619492  11.351517  11.449907  11.449907
    36  H   12.694871  12.574048  11.449907  11.646184  11.514362
    37  H   12.574047  12.694870  11.449907  11.514362  11.646184
    38  C   13.940697  13.940697  12.574047  12.619491  12.619492
    39  H   13.993684  14.102350  12.619491  12.574047  12.694870
    40  H   14.102350  13.993685  12.619492  12.694870  12.574048
    41  C   15.126748  15.126748  13.860000  13.940697  13.940697
    42  H   15.189690  15.088857  13.940697  14.102350  13.993685
    43  H   16.034072  16.034072  14.707607  14.757841  14.757841
    44  H   15.088856  15.189689  13.940697  13.993684  14.102350
                   11         12         13         14         15
    11  C    0.000000
    12  H    1.070000   0.000000
    13  H    1.070000   1.747303   0.000000
    14  C    1.540000   2.148263   2.148263   0.000000
    15  H    2.148263   3.024610   2.468846   1.070000   0.000000
    16  H    2.148263   2.468846   3.024610   1.070000   1.747303
    17  C    2.514809   2.732978   2.732978   1.540000   2.148263
    18  H    2.732978   2.514809   3.062243   2.148263   3.024610
    19  H    2.732978   3.062243   2.514809   2.148263   2.468846
    20  C    3.875582   4.154945   4.154945   2.514810   2.732978
    21  H    4.154945   4.668704   4.329403   2.732978   2.514809
    22  H    4.154945   4.329403   4.668704   2.732978   3.062243
    23  C    5.029619   5.142175   5.142175   3.875582   4.154945
    24  H    5.142175   5.029619   5.324484   4.154945   4.668704
    25  H    5.142175   5.324484   5.029619   4.154945   4.329403
    26  C    6.349583   6.523851   6.523851   5.029619   5.142175
    27  H    6.523851   6.862497   6.636324   5.142175   5.029619
    28  H    6.523851   6.636324   6.862497   5.142175   5.324484
    29  C    7.544428   7.619928   7.619928   6.349583   6.523851
    30  H    7.619928   7.544429   7.744125   6.523851   6.862497
    31  H    7.619928   7.744125   7.544428   6.523851   6.636324
    32  C    8.846626   8.972527   8.972526   7.544428   7.619928
    33  H    8.972526   9.221685   9.054634   7.619928   7.544428
    34  H    8.972527   9.054634   9.221685   7.619928   7.744124
    35  C   10.059238  10.115986  10.115986   8.846626   8.972526
    36  H   10.115986  10.059238  10.209865   8.972527   9.221685
    37  H   10.115985  10.209864  10.059237   8.972526   9.054634
    38  C   11.351517  11.449907  11.449907  10.059238  10.115985
    39  H   11.449907  11.646184  11.514362  10.115985  10.059237
    40  H   11.449907  11.514363  11.646184  10.115986  10.209864
    41  C   12.574047  12.619492  12.619491  11.351517  11.449907
    42  H   12.619492  12.574048  12.694870  11.449907  11.646184
    43  H   13.461881  13.532568  13.532568  12.193314  12.253859
    44  H   12.619491  12.694870  12.574047  11.449907  11.514362
                   16         17         18         19         20
    16  H    0.000000
    17  C    2.148263   0.000000
    18  H    2.468846   1.070000   0.000000
    19  H    3.024610   1.070000   1.747303   0.000000
    20  C    2.732978   1.540000   2.148263   2.148263   0.000000
    21  H    3.062243   2.148263   3.024610   2.468846   1.070000
    22  H    2.514810   2.148263   2.468846   3.024610   1.070000
    23  C    4.154945   2.514810   2.732978   2.732978   1.540000
    24  H    4.329404   2.732978   2.514810   3.062243   2.148263
    25  H    4.668704   2.732978   3.062243   2.514809   2.148263
    26  C    5.142175   3.875582   4.154945   4.154945   2.514809
    27  H    5.324485   4.154945   4.668704   4.329403   2.732978
    28  H    5.029619   4.154945   4.329404   4.668704   2.732978
    29  C    6.523851   5.029619   5.142175   5.142175   3.875582
    30  H    6.636325   5.142175   5.029619   5.324484   4.154945
    31  H    6.862497   5.142175   5.324484   5.029619   4.154945
    32  C    7.619928   6.349583   6.523851   6.523851   5.029619
    33  H    7.744125   6.523851   6.862497   6.636324   5.142175
    34  H    7.544429   6.523851   6.636325   6.862497   5.142175
    35  C    8.972527   7.544428   7.619928   7.619928   6.349583
    36  H    9.054634   7.619928   7.544429   7.744125   6.523851
    37  H    9.221685   7.619928   7.744125   7.544428   6.523851
    38  C   10.115986   8.846626   8.972527   8.972526   7.544428
    39  H   10.209865   8.972526   9.221685   9.054634   7.619928
    40  H   10.059238   8.972527   9.054635   9.221685   7.619928
    41  C   11.449907  10.059238  10.115986  10.115986   8.846626
    42  H   11.514362  10.115986  10.059238  10.209865   8.972527
    43  H   12.253859  10.950329  11.037113  11.037113   9.679289
    44  H   11.646184  10.115985  10.209864  10.059237   8.972526
                   21         22         23         24         25
    21  H    0.000000
    22  H    1.747303   0.000000
    23  C    2.148263   2.148263   0.000000
    24  H    3.024610   2.468846   1.070000   0.000000
    25  H    2.468846   3.024610   1.070000   1.747303   0.000000
    26  C    2.732978   2.732978   1.540000   2.148263   2.148263
    27  H    2.514809   3.062243   2.148263   3.024610   2.468846
    28  H    3.062243   2.514810   2.148263   2.468846   3.024610
    29  C    4.154945   4.154945   2.514809   2.732978   2.732978
    30  H    4.668704   4.329403   2.732978   2.514809   3.062243
    31  H    4.329403   4.668704   2.732978   3.062243   2.514809
    32  C    5.142175   5.142175   3.875582   4.154945   4.154945
    33  H    5.029619   5.324484   4.154945   4.668704   4.329403
    34  H    5.324484   5.029619   4.154945   4.329403   4.668704
    35  C    6.523851   6.523851   5.029619   5.142175   5.142175
    36  H    6.862497   6.636324   5.142175   5.029619   5.324485
    37  H    6.636324   6.862497   5.142175   5.324484   5.029619
    38  C    7.619928   7.619928   6.349583   6.523851   6.523851
    39  H    7.544428   7.744125   6.523851   6.862497   6.636324
    40  H    7.744125   7.544429   6.523851   6.636325   6.862497
    41  C    8.972526   8.972527   7.544428   7.619928   7.619928
    42  H    9.221685   9.054634   7.619928   7.544429   7.744125
    43  H    9.755449   9.755450   8.440717   8.553003   8.553003
    44  H    9.054634   9.221685   7.619928   7.744124   7.544428
                   26         27         28         29         30
    26  C    0.000000
    27  H    1.070000   0.000000
    28  H    1.070000   1.747303   0.000000
    29  C    1.540000   2.148263   2.148263   0.000000
    30  H    2.148263   3.024610   2.468846   1.070000   0.000000
    31  H    2.148263   2.468846   3.024610   1.070000   1.747303
    32  C    2.514809   2.732978   2.732978   1.540000   2.148263
    33  H    2.732978   2.514809   3.062243   2.148263   3.024610
    34  H    2.732978   3.062243   2.514810   2.148263   2.468846
    35  C    3.875582   4.154945   4.154945   2.514809   2.732978
    36  H    4.154945   4.668704   4.329403   2.732978   2.514810
    37  H    4.154945   4.329403   4.668704   2.732977   3.062243
    38  C    5.029619   5.142175   5.142175   3.875582   4.154945
    39  H    5.142175   5.029619   5.324484   4.154945   4.668704
    40  H    5.142175   5.324484   5.029619   4.154945   4.329404
    41  C    6.349583   6.523851   6.523851   5.029619   5.142175
    42  H    6.523851   6.862497   6.636325   5.142175   5.029619
    43  H    7.165815   7.268360   7.268361   5.935506   6.094128
    44  H    6.523851   6.636324   6.862497   5.142175   5.324484
                   31         32         33         34         35
    31  H    0.000000
    32  C    2.148263   0.000000
    33  H    2.468846   1.070000   0.000000
    34  H    3.024610   1.070000   1.747303   0.000000
    35  C    2.732978   1.540000   2.148263   2.148263   0.000000
    36  H    3.062243   2.148263   3.024610   2.468846   1.070000
    37  H    2.514809   2.148263   2.468846   3.024610   1.070000
    38  C    4.154945   2.514809   2.732977   2.732978   1.540000
    39  H    4.329403   2.732978   2.514809   3.062243   2.148263
    40  H    4.668704   2.732978   3.062243   2.514810   2.148263
    41  C    5.142175   3.875582   4.154945   4.154945   2.514809
    42  H    5.324484   4.154945   4.668704   4.329403   2.732978
    43  H    6.094128   4.653783   4.810183   4.810184   3.444314
    44  H    5.029619   4.154945   4.329403   4.668704   2.732978
                   36         37         38         39         40
    36  H    0.000000
    37  H    1.747303   0.000000
    38  C    2.148263   2.148263   0.000000
    39  H    3.024610   2.468846   1.070000   0.000000
    40  H    2.468846   3.024610   1.070000   1.747303   0.000000
    41  C    2.732978   2.732978   1.540000   2.148263   2.148263
    42  H    2.514810   3.062243   2.148263   3.024610   2.468846
    43  H    3.710993   3.710993   2.148263   2.468846   2.468846
    44  H    3.062243   2.514809   2.148263   2.468846   3.024610
                   41         42         43         44
    41  C    0.000000
    42  H    1.070000   0.000000
    43  H    1.070000   1.747303   0.000000
    44  H    1.070000   1.747303   1.747303   0.000000
 Stoichiometry    C14H30
 Framework group  C2[X(C14H30)]
 Deg. of freedom    64
 Full point group                 C2      NOp   2
 Largest Abelian subgroup         C2      NOp   2
 Largest concise Abelian subgroup C2      NOp   2
                         Standard orientation:                         
 ---------------------------------------------------------------------
 Center     Atomic      Atomic             Coordinates (Angstroms)
 Number     Number       Type             X           Y           Z
 ---------------------------------------------------------------------
      1          6           0       -0.444560    8.173131    0.000000
      2          1           0       -1.062324    8.173131    0.873651
      3          1           0       -1.062325    8.173131   -0.873652
      4          1           0        0.173205    9.046782   -0.000001
      5          6           0        0.444560    6.915726    0.000000
      6          1           0        1.062324    6.915726   -0.873652
      7          1           0        1.062325    6.915726    0.873651
      8          6           0       -0.444560    5.658321    0.000000
      9          1           0       -1.062325    5.658321   -0.873652
     10          1           0       -1.062325    5.658321    0.873651
     11          6           0        0.444560    4.400917    0.000000
     12          1           0        1.062325    4.400917    0.873651
     13          1           0        1.062324    4.400916   -0.873651
     14          6           0       -0.444560    3.143512    0.000000
     15          1           0       -1.062325    3.143512   -0.873651
     16          1           0       -1.062324    3.143512    0.873652
     17          6           0        0.444560    1.886107    0.000000
     18          1           0        1.062324    1.886107    0.873652
     19          1           0        1.062324    1.886107   -0.873651
     20          6           0       -0.444560    0.628702    0.000000
     21          1           0       -1.062324    0.628702   -0.873651
     22          1           0       -1.062324    0.628702    0.873652
     23          6           0        0.444560   -0.628702    0.000000
     24          1           0        1.062324   -0.628702    0.873652
     25          1           0        1.062324   -0.628702   -0.873651
     26          6           0       -0.444560   -1.886107    0.000000
     27          1           0       -1.062324   -1.886107   -0.873651
     28          1           0       -1.062324   -1.886107    0.873652
     29          6           0        0.444560   -3.143512    0.000000
     30          1           0        1.062324   -3.143512    0.873652
     31          1           0        1.062325   -3.143512   -0.873651
     32          6           0       -0.444560   -4.400917    0.000000
     33          1           0       -1.062324   -4.400916   -0.873651
     34          1           0       -1.062325   -4.400917    0.873651
     35          6           0        0.444560   -5.658321    0.000000
     36          1           0        1.062325   -5.658321    0.873651
     37          1           0        1.062325   -5.658321   -0.873652
     38          6           0       -0.444560   -6.915726    0.000000
     39          1           0       -1.062324   -6.915726   -0.873652
     40          1           0       -1.062325   -6.915726    0.873651
     41          6           0        0.444560   -8.173131    0.000000
     42          1           0        1.062324   -8.173131    0.873651
     43          1           0       -0.173205   -9.046782   -0.000001
     44          1           0        1.062325   -8.173131   -0.873652
 ---------------------------------------------------------------------
 Rotational constants (GHZ):           5.8843976           0.0966567           0.0958718
 Standard basis: 6-31G (6D, 7F)
 There are    93 symmetry adapted cartesian basis functions of A   symmetry.
 There are    93 symmetry adapted cartesian basis functions of B   symmetry.
 There are    93 symmetry adapted basis functions of A   symmetry.
 There are    93 symmetry adapted basis functions of B   symmetry.
   186 basis functions,   428 primitive gaussians,   186 cartesian basis functions
    57 alpha electrons       57 beta electrons
       nuclear repulsion energy       843.2017213149 Hartrees.
 NAtoms=   44 NActive=   44 NUniq=   22 SFac= 4.00D+00 NAtFMM=   60 NAOKFM=F Big=F
 Integral buffers will be    131072 words long.
 Raffenetti 2 integral format.
 Two-electron integral symmetry is turned on.
 One-electron integrals computed using PRISM.
 NBasis=   186 RedAO= T EigKep=  3.09D-03  NBF=    93    93
 NBsUse=   186 1.00D-06 EigRej= -1.00D+00 NBFU=    93    93
 ExpMin= 1.61D-01 ExpMax= 3.05D+03 ExpMxC= 4.57D+02 IAcc=3 IRadAn=         5 AccDes= 0.00D+00
 Harris functional with IExCor=  402 and IRadAn=       5 diagonalized for initial guess.
 HarFok:  IExCor=  402 AccDes= 0.00D+00 IRadAn=         5 IDoV= 1 UseB2=F ITyADJ=14
 ICtDFT=  3500011 ScaDFX=  1.000000  1.000000  1.000000  1.000000
 FoFCou: FMM=F IPFlag=           0 FMFlag=      100000 FMFlg1=           0
         NFxFlg=           0 DoJE=T BraDBF=F KetDBF=T FulRan=T
         wScrn=  0.000000 ICntrl=       500 IOpCl=  0 I1Cent=   200000004 NGrid=           0
         NMat0=    1 NMatS0=      1 NMatT0=    0 NMatD0=    1 NMtDS0=    0 NMtDT0=    0
 Petite list used in FoFCou.
 Initial guess orbital symmetries:
       Occupied  (B) (A) (A) (B) (B) (A) (A) (B) (B) (A) (B) (A)
                 (B) (A) (A) (B) (A) (B) (A) (B) (A) (B) (A) (B)
                 (B) (A) (A) (B) (A) (B) (A) (B) (B) (A) (A) (A)
                 (B) (B) (A) (B) (A) (B) (B) (A) (A) (A) (B) (A)
                 (B) (B) (A) (A) (B) (B) (A) (B) (A)
       Virtual   (A) (B) (A) (B) (A) (A) (B) (B) (B) (A) (A) (A)
                 (B) (B) (A) (B) (B) (B) (A) (A) (B) (A) (B) (A)
                 (B) (A) (A) (B) (A) (B) (B) (B) (A) (B) (A) (B)
                 (B) (A) (A) (A) (B) (A) (B) (A) (B) (A) (B) (A)
                 (B) (A) (B) (B) (A) (A) (A) (B) (A) (B) (B) (A)
                 (A) (B) (A) (B) (A) (B) (B) (B) (A) (A) (A) (B)
                 (B) (B) (A) (A) (B) (A) (A) (B) (B) (B) (A) (A)
                 (B) (A) (B) (A) (B) (A) (B) (A) (B) (A) (B) (A)
                 (B) (B) (A) (A) (A) (B) (A) (B) (A) (B) (B) (A)
                 (A) (B) (B) (A) (A) (B) (A) (B) (B) (A) (B) (A)
                 (A) (B) (A) (B) (B) (A) (B) (A) (B)
 The electronic state of the initial guess is 1-A.
 Requested convergence on RMS density matrix=1.00D-08 within 128 cycles.
 Requested convergence on MAX density matrix=1.00D-06.
 Requested convergence on             energy=1.00D-06.
 No special actions if energy rises.
 Integral accuracy reduced to 1.0D-05 until final iterations.
 Initial convergence to 1.0D-05 achieved.  Increase integral accuracy.
 SCF Done:  E(RB3LYP) =  -551.434026203     A.U. after   11 cycles
            NFock= 11  Conv=0.48D-08     -V/T= 2.0036

 **********************************************************************

            Population analysis using the SCF Density.

 **********************************************************************

 Orbital symmetries:
       Occupied  (B) (A) (B) (A) (B) (A) (B) (A) (A) (B) (A) (B)
                 (B) (A) (A) (B) (A) (B) (A) (B) (A) (B) (A) (B)
                 (B) (A) (B) (A) (A) (B) (A) (B) (A) (B) (A) (A)
                 (B) (B) (A) (A) (B) (B) (B) (A) (A) (B) (B) (A)
                 (A) (B) (A) (B) (A) (B) (A) (B) (A)
       Virtual   (A) (B) (A) (B) (A) (A) (B) (B) (A) (B) (A) (B)
                 (A) (B) (A) (B) (A) (A) (B) (B) (A) (B) (A) (B)
                 (B) (A) (A) (B) (B) (B) (A) (A) (B) (B) (A) (A)
                 (B) (A) (B) (B) (A) (A) (B) (A) (B) (A) (A) (B)
                 (A) (B) (B) (A) (A) (B) (B) (B) (A) (A) (A) (B)
                 (A) (B) (B) (B) (A) (A) (B) (A) (B) (A) (A) (B)
                 (B) (B) (A) (A) (A) (B) (A) (B) (B) (B) (A) (B)
                 (A) (A) (A) (B) (B) (A) (B) (A) (B) (A) (A) (B)
                 (B) (A) (B) (A) (A) (B) (B) (A) (A) (B) (A) (B)
                 (A) (B) (B) (A) (A) (B) (A) (B) (B) (A) (B) (A)
                 (A) (B) (A) (B) (B) (A) (B) (A) (B)
 The electronic state is 1-A.
 Alpha  occ. eigenvalues --  -10.16081 -10.16081 -10.15819 -10.15819 -10.15762
 Alpha  occ. eigenvalues --  -10.15762 -10.15739 -10.15738 -10.15721 -10.15718
 Alpha  occ. eigenvalues --  -10.15709 -10.15699 -10.15244 -10.15244  -0.81466
 Alpha  occ. eigenvalues --   -0.80602  -0.79125  -0.77090  -0.74541  -0.71537
 Alpha  occ. eigenvalues --   -0.68166  -0.64591  -0.61151  -0.58602  -0.58341
 Alpha  occ. eigenvalues --   -0.57997  -0.57297  -0.57199  -0.49374  -0.48572
 Alpha  occ. eigenvalues --   -0.47231  -0.45444  -0.43317  -0.42909  -0.42661
 Alpha  occ. eigenvalues --   -0.40990  -0.40990  -0.40951  -0.38832  -0.38645
 Alpha  occ. eigenvalues --   -0.37478  -0.36650  -0.36488  -0.34782  -0.34727
 Alpha  occ. eigenvalues --   -0.33512  -0.33411  -0.33179  -0.32869  -0.32759
 Alpha  occ. eigenvalues --   -0.32628  -0.32598  -0.32582  -0.32190  -0.32015
 Alpha  occ. eigenvalues --   -0.29036  -0.25900
 Alpha virt. eigenvalues --    0.08825   0.09366   0.10144   0.11034   0.11802
 Alpha virt. eigenvalues --    0.12242   0.12930   0.12969   0.14079   0.14149
 Alpha virt. eigenvalues --    0.14805   0.15938   0.16814   0.17244   0.17908
 Alpha virt. eigenvalues --    0.18432   0.19495   0.19533   0.19857   0.20169
 Alpha virt. eigenvalues --    0.20584   0.20687   0.20893   0.21207   0.21662
 Alpha virt. eigenvalues --    0.21733   0.22529   0.22648   0.22693   0.22903
 Alpha virt. eigenvalues --    0.22935   0.23966   0.24129   0.24158   0.24281
 Alpha virt. eigenvalues --    0.25749   0.26508   0.26595   0.28716   0.29471
 Alpha virt. eigenvalues --    0.29709   0.35644   0.35836   0.47587   0.50787
 Alpha virt. eigenvalues --    0.54346   0.54656   0.55167   0.57390   0.57408
 Alpha virt. eigenvalues --    0.57557   0.59139   0.59230   0.59439   0.59468
 Alpha virt. eigenvalues --    0.59977   0.60087   0.62389   0.62642   0.64797
 Alpha virt. eigenvalues --    0.64835   0.66559   0.67181   0.68951   0.69211
 Alpha virt. eigenvalues --    0.70130   0.72497   0.72981   0.73089   0.73520
 Alpha virt. eigenvalues --    0.75827   0.77549   0.79005   0.79026   0.81653
 Alpha virt. eigenvalues --    0.83207   0.83429   0.84306   0.85621   0.85695
 Alpha virt. eigenvalues --    0.86609   0.88790   0.89810   0.90846   0.91372
 Alpha virt. eigenvalues --    0.92642   0.94708   0.95140   0.96613   0.97270
 Alpha virt. eigenvalues --    0.97317   0.98094   0.99168   1.00387   1.00945
 Alpha virt. eigenvalues --    1.00967   1.02462   1.03051   1.03256   1.03291
 Alpha virt. eigenvalues --    1.03374   1.03860   1.04183   1.04367   1.05016
 Alpha virt. eigenvalues --    1.05281   1.05536   1.05655   1.07442   1.09902
 Alpha virt. eigenvalues --    1.11724   1.17246   1.21503   1.22091   1.30027
 Alpha virt. eigenvalues --    1.30678   1.36102   1.40862   1.44840   1.45921
 Alpha virt. eigenvalues --    1.47979   1.50316   1.51578   1.53877   1.56859
 Alpha virt. eigenvalues --    1.61700   1.77200   1.96653   2.10002
          Condensed to atoms (all electrons):
               1          2          3          4          5          6
     1  C    5.081615   0.382022   0.382022   0.369172   0.326724  -0.041921
     2  H    0.382022   0.593016  -0.034039  -0.032649  -0.039246   0.005729
     3  H    0.382022  -0.034039   0.593016  -0.032649  -0.039246  -0.005145
     4  H    0.369172  -0.032649  -0.032649   0.602215  -0.032720  -0.002703
     5  C    0.326724  -0.039246  -0.039246  -0.032720   5.057562   0.383626
     6  H   -0.041921   0.005729  -0.005145  -0.002703   0.383626   0.619860
     7  H   -0.041921  -0.005145   0.005729  -0.002703   0.383626  -0.040472
     8  C   -0.053298  -0.005313  -0.005313   0.005311   0.335304  -0.043024
     9  H   -0.003066  -0.000617   0.005532   0.000011  -0.043923  -0.006118
    10  H   -0.003066   0.005532  -0.000617   0.000011  -0.043923   0.006195
    11  C    0.005439   0.000084   0.000084  -0.000233  -0.045537  -0.003566
    12  H    0.000061   0.000002   0.000008   0.000003  -0.003543  -0.000621
    13  H    0.000061   0.000008   0.000002   0.000003  -0.003543   0.005302
    14  C   -0.000231   0.000001   0.000001   0.000003   0.005247   0.000064
    15  H    0.000002   0.000001  -0.000003   0.000000   0.000056   0.000005
    16  H    0.000002  -0.000003   0.000001   0.000000   0.000056   0.000005
    17  C    0.000002   0.000000   0.000000   0.000000  -0.000217   0.000002
    18  H    0.000000   0.000000   0.000000   0.000000   0.000002   0.000001
    19  H    0.000000   0.000000   0.000000   0.000000   0.000002  -0.000003
    20  C    0.000000   0.000000   0.000000   0.000000   0.000002   0.000000
    21  H    0.000000   0.000000   0.000000   0.000000   0.000000   0.000000
    22  H    0.000000   0.000000   0.000000   0.000000   0.000000   0.000000
    23  C    0.000000   0.000000   0.000000   0.000000   0.000000   0.000000
    24  H    0.000000   0.000000   0.000000   0.000000   0.000000   0.000000
    25  H    0.000000   0.000000   0.000000   0.000000   0.000000   0.000000
    26  C    0.000000   0.000000   0.000000   0.000000   0.000000   0.000000
    27  H    0.000000   0.000000   0.000000   0.000000   0.000000   0.000000
    28  H    0.000000   0.000000   0.000000   0.000000   0.000000   0.000000
    29  C    0.000000   0.000000   0.000000   0.000000   0.000000   0.000000
    30  H    0.000000   0.000000   0.000000   0.000000   0.000000   0.000000
    31  H    0.000000   0.000000   0.000000   0.000000   0.000000   0.000000
    32  C    0.000000   0.000000   0.000000   0.000000   0.000000   0.000000
    33  H    0.000000   0.000000   0.000000   0.000000   0.000000   0.000000
    34  H    0.000000   0.000000   0.000000   0.000000   0.000000   0.000000
    35  C    0.000000   0.000000   0.000000   0.000000   0.000000   0.000000
    36  H    0.000000   0.000000   0.000000   0.000000   0.000000   0.000000
    37  H    0.000000   0.000000   0.000000   0.000000   0.000000   0.000000
    38  C    0.000000   0.000000   0.000000   0.000000   0.000000   0.000000
    39  H    0.000000   0.000000   0.000000   0.000000   0.000000   0.000000
    40  H    0.000000   0.000000   0.000000   0.000000   0.000000   0.000000
    41  C    0.000000   0.000000   0.000000   0.000000   0.000000   0.000000
    42  H    0.000000   0.000000   0.000000   0.000000   0.000000   0.000000
    43  H    0.000000   0.000000   0.000000   0.000000   0.000000   0.000000
    44  H    0.000000   0.000000   0.000000   0.000000   0.000000   0.000000
               7          8          9         10         11         12
     1  C   -0.041921  -0.053298  -0.003066  -0.003066   0.005439   0.000061
     2  H   -0.005145  -0.005313  -0.000617   0.005532   0.000084   0.000002
     3  H    0.005729  -0.005313   0.005532  -0.000617   0.000084   0.000008
     4  H   -0.002703   0.005311   0.000011   0.000011  -0.000233   0.000003
     5  C    0.383626   0.335304  -0.043923  -0.043923  -0.045537  -0.003543
     6  H   -0.040472  -0.043024  -0.006118   0.006195  -0.003566  -0.000621
     7  H    0.619860  -0.043025   0.006195  -0.006118  -0.003566   0.005302
     8  C   -0.043025   5.089579   0.381331   0.381331   0.320934  -0.042996
     9  H    0.006195   0.381331   0.624272  -0.041553  -0.042742   0.006167
    10  H   -0.006118   0.381331  -0.041553   0.624272  -0.042742  -0.006075
    11  C   -0.003566   0.320934  -0.042742  -0.042742   5.103194   0.381269
    12  H    0.005302  -0.042996   0.006167  -0.006075   0.381269   0.623966
    13  H   -0.000621  -0.042996  -0.006075   0.006167   0.381269  -0.041384
    14  C    0.000064  -0.045258  -0.003441  -0.003441   0.316452  -0.042924
    15  H    0.000005  -0.003476   0.005216  -0.000607  -0.043100   0.006160
    16  H    0.000005  -0.003476  -0.000607   0.005216  -0.043100  -0.006071
    17  C    0.000002   0.005213   0.000068   0.000068  -0.044854  -0.003424
    18  H   -0.000003   0.000062   0.000004   0.000006  -0.003429   0.005216
    19  H    0.000001   0.000062   0.000006   0.000004  -0.003429  -0.000604
    20  C    0.000000  -0.000219   0.000002   0.000002   0.005174   0.000064
    21  H    0.000000   0.000002  -0.000003   0.000001   0.000063   0.000004
    22  H    0.000000   0.000002   0.000001  -0.000003   0.000063   0.000006
    23  C    0.000000   0.000002   0.000000   0.000000  -0.000217   0.000002
    24  H    0.000000   0.000000   0.000000   0.000000   0.000002  -0.000003
    25  H    0.000000   0.000000   0.000000   0.000000   0.000002   0.000001
    26  C    0.000000   0.000000   0.000000   0.000000   0.000002   0.000000
    27  H    0.000000   0.000000   0.000000   0.000000   0.000000   0.000000
    28  H    0.000000   0.000000   0.000000   0.000000   0.000000   0.000000
    29  C    0.000000   0.000000   0.000000   0.000000   0.000000   0.000000
    30  H    0.000000   0.000000   0.000000   0.000000   0.000000   0.000000
    31  H    0.000000   0.000000   0.000000   0.000000   0.000000   0.000000
    32  C    0.000000   0.000000   0.000000   0.000000   0.000000   0.000000
    33  H    0.000000   0.000000   0.000000   0.000000   0.000000   0.000000
    34  H    0.000000   0.000000   0.000000   0.000000   0.000000   0.000000
    35  C    0.000000   0.000000   0.000000   0.000000   0.000000   0.000000
    36  H    0.000000   0.000000   0.000000   0.000000   0.000000   0.000000
    37  H    0.000000   0.000000   0.000000   0.000000   0.000000   0.000000
    38  C    0.000000   0.000000   0.000000   0.000000   0.000000   0.000000
    39  H    0.000000   0.000000   0.000000   0.000000   0.000000   0.000000
    40  H    0.000000   0.000000   0.000000   0.000000   0.000000   0.000000
    41  C    0.000000   0.000000   0.000000   0.000000   0.000000   0.000000
    42  H    0.000000   0.000000   0.000000   0.000000   0.000000   0.000000
    43  H    0.000000   0.000000   0.000000   0.000000   0.000000   0.000000
    44  H    0.000000   0.000000   0.000000   0.000000   0.000000   0.000000
              13         14         15         16         17         18
     1  C    0.000061  -0.000231   0.000002   0.000002   0.000002   0.000000
     2  H    0.000008   0.000001   0.000001  -0.000003   0.000000   0.000000
     3  H    0.000002   0.000001  -0.000003   0.000001   0.000000   0.000000
     4  H    0.000003   0.000003   0.000000   0.000000   0.000000   0.000000
     5  C   -0.003543   0.005247   0.000056   0.000056  -0.000217   0.000002
     6  H    0.005302   0.000064   0.000005   0.000005   0.000002   0.000001
     7  H   -0.000621   0.000064   0.000005   0.000005   0.000002  -0.000003
     8  C   -0.042996  -0.045258  -0.003476  -0.003476   0.005213   0.000062
     9  H   -0.006075  -0.003441   0.005216  -0.000607   0.000068   0.000004
    10  H    0.006167  -0.003441  -0.000607   0.005216   0.000068   0.000006
    11  C    0.381269   0.316452  -0.043100  -0.043100  -0.044854  -0.003429
    12  H   -0.041384  -0.042924   0.006160  -0.006071  -0.003424   0.005216
    13  H    0.623966  -0.042924  -0.006071   0.006160  -0.003424  -0.000604
    14  C   -0.042924   5.109478   0.381315   0.381315   0.315076  -0.043094
    15  H   -0.006071   0.381315   0.624433  -0.041442  -0.042986   0.006162
    16  H    0.006160   0.381315  -0.041442   0.624433  -0.042986  -0.006071
    17  C   -0.003424   0.315076  -0.042986  -0.042986   5.110482   0.381322
    18  H   -0.000604  -0.043094   0.006162  -0.006071   0.381322   0.624543
    19  H    0.005216  -0.043094  -0.006071   0.006162   0.381322  -0.041436
    20  C    0.000064  -0.044794  -0.003421  -0.003421   0.314590  -0.043044
    21  H    0.000006  -0.003430   0.005216  -0.000603  -0.043073   0.006163
    22  H    0.000004  -0.003430  -0.000603   0.005216  -0.043073  -0.006071
    23  C    0.000002   0.005170   0.000063   0.000063  -0.044746  -0.003423
    24  H    0.000001   0.000063   0.000004   0.000006  -0.003426   0.005217
    25  H   -0.000003   0.000063   0.000006   0.000004  -0.003426  -0.000603
    26  C    0.000000  -0.000218   0.000002   0.000002   0.005168   0.000063
    27  H    0.000000   0.000002  -0.000003   0.000001   0.000063   0.000004
    28  H    0.000000   0.000002   0.000001  -0.000003   0.000063   0.000006
    29  C    0.000000   0.000002   0.000000   0.000000  -0.000218   0.000002
    30  H    0.000000   0.000000   0.000000   0.000000   0.000002  -0.000003
    31  H    0.000000   0.000000   0.000000   0.000000   0.000002   0.000001
    32  C    0.000000   0.000000   0.000000   0.000000   0.000002   0.000000
    33  H    0.000000   0.000000   0.000000   0.000000   0.000000   0.000000
    34  H    0.000000   0.000000   0.000000   0.000000   0.000000   0.000000
    35  C    0.000000   0.000000   0.000000   0.000000   0.000000   0.000000
    36  H    0.000000   0.000000   0.000000   0.000000   0.000000   0.000000
    37  H    0.000000   0.000000   0.000000   0.000000   0.000000   0.000000
    38  C    0.000000   0.000000   0.000000   0.000000   0.000000   0.000000
    39  H    0.000000   0.000000   0.000000   0.000000   0.000000   0.000000
    40  H    0.000000   0.000000   0.000000   0.000000   0.000000   0.000000
    41  C    0.000000   0.000000   0.000000   0.000000   0.000000   0.000000
    42  H    0.000000   0.000000   0.000000   0.000000   0.000000   0.000000
    43  H    0.000000   0.000000   0.000000   0.000000   0.000000   0.000000
    44  H    0.000000   0.000000   0.000000   0.000000   0.000000   0.000000
              19         20         21         22         23         24
     1  C    0.000000   0.000000   0.000000   0.000000   0.000000   0.000000
     2  H    0.000000   0.000000   0.000000   0.000000   0.000000   0.000000
     3  H    0.000000   0.000000   0.000000   0.000000   0.000000   0.000000
     4  H    0.000000   0.000000   0.000000   0.000000   0.000000   0.000000
     5  C    0.000002   0.000002   0.000000   0.000000   0.000000   0.000000
     6  H   -0.000003   0.000000   0.000000   0.000000   0.000000   0.000000
     7  H    0.000001   0.000000   0.000000   0.000000   0.000000   0.000000
     8  C    0.000062  -0.000219   0.000002   0.000002   0.000002   0.000000
     9  H    0.000006   0.000002  -0.000003   0.000001   0.000000   0.000000
    10  H    0.000004   0.000002   0.000001  -0.000003   0.000000   0.000000
    11  C   -0.003429   0.005174   0.000063   0.000063  -0.000217   0.000002
    12  H   -0.000604   0.000064   0.000004   0.000006   0.000002  -0.000003
    13  H    0.005216   0.000064   0.000006   0.000004   0.000002   0.000001
    14  C   -0.043094  -0.044794  -0.003430  -0.003430   0.005170   0.000063
    15  H   -0.006071  -0.003421   0.005216  -0.000603   0.000063   0.000004
    16  H    0.006162  -0.003421  -0.000603   0.005216   0.000063   0.000006
    17  C    0.381322   0.314590  -0.043073  -0.043073  -0.044746  -0.003426
    18  H   -0.041436  -0.043044   0.006163  -0.006071  -0.003423   0.005217
    19  H    0.624543  -0.043044  -0.006071   0.006163  -0.003423  -0.000603
    20  C   -0.043044   5.111097   0.381305   0.381305   0.314558  -0.043060
    21  H   -0.006071   0.381305   0.624631  -0.041446  -0.043060   0.006164
    22  H    0.006163   0.381305  -0.041446   0.624631  -0.043060  -0.006071
    23  C   -0.003423   0.314558  -0.043060  -0.043060   5.111097   0.381305
    24  H   -0.000603  -0.043060   0.006164  -0.006071   0.381305   0.624631
    25  H    0.005217  -0.043060  -0.006071   0.006164   0.381305  -0.041446
    26  C    0.000063  -0.044746  -0.003426  -0.003426   0.314590  -0.043073
    27  H    0.000006  -0.003423   0.005217  -0.000603  -0.043044   0.006163
    28  H    0.000004  -0.003423  -0.000603   0.005217  -0.043044  -0.006071
    29  C    0.000002   0.005170   0.000063   0.000063  -0.044794  -0.003430
    30  H    0.000001   0.000063   0.000004   0.000006  -0.003421   0.005216
    31  H   -0.000003   0.000063   0.000006   0.000004  -0.003421  -0.000603
    32  C    0.000000  -0.000217   0.000002   0.000002   0.005174   0.000063
    33  H    0.000000   0.000002  -0.000003   0.000001   0.000064   0.000004
    34  H    0.000000   0.000002   0.000001  -0.000003   0.000064   0.000006
    35  C    0.000000   0.000002   0.000000   0.000000  -0.000219   0.000002
    36  H    0.000000   0.000000   0.000000   0.000000   0.000002  -0.000003
    37  H    0.000000   0.000000   0.000000   0.000000   0.000002   0.000001
    38  C    0.000000   0.000000   0.000000   0.000000   0.000002   0.000000
    39  H    0.000000   0.000000   0.000000   0.000000   0.000000   0.000000
    40  H    0.000000   0.000000   0.000000   0.000000   0.000000   0.000000
    41  C    0.000000   0.000000   0.000000   0.000000   0.000000   0.000000
    42  H    0.000000   0.000000   0.000000   0.000000   0.000000   0.000000
    43  H    0.000000   0.000000   0.000000   0.000000   0.000000   0.000000
    44  H    0.000000   0.000000   0.000000   0.000000   0.000000   0.000000
              25         26         27         28         29         30
     1  C    0.000000   0.000000   0.000000   0.000000   0.000000   0.000000
     2  H    0.000000   0.000000   0.000000   0.000000   0.000000   0.000000
     3  H    0.000000   0.000000   0.000000   0.000000   0.000000   0.000000
     4  H    0.000000   0.000000   0.000000   0.000000   0.000000   0.000000
     5  C    0.000000   0.000000   0.000000   0.000000   0.000000   0.000000
     6  H    0.000000   0.000000   0.000000   0.000000   0.000000   0.000000
     7  H    0.000000   0.000000   0.000000   0.000000   0.000000   0.000000
     8  C    0.000000   0.000000   0.000000   0.000000   0.000000   0.000000
     9  H    0.000000   0.000000   0.000000   0.000000   0.000000   0.000000
    10  H    0.000000   0.000000   0.000000   0.000000   0.000000   0.000000
    11  C    0.000002   0.000002   0.000000   0.000000   0.000000   0.000000
    12  H    0.000001   0.000000   0.000000   0.000000   0.000000   0.000000
    13  H   -0.000003   0.000000   0.000000   0.000000   0.000000   0.000000
    14  C    0.000063  -0.000218   0.000002   0.000002   0.000002   0.000000
    15  H    0.000006   0.000002  -0.000003   0.000001   0.000000   0.000000
    16  H    0.000004   0.000002   0.000001  -0.000003   0.000000   0.000000
    17  C   -0.003426   0.005168   0.000063   0.000063  -0.000218   0.000002
    18  H   -0.000603   0.000063   0.000004   0.000006   0.000002  -0.000003
    19  H    0.005217   0.000063   0.000006   0.000004   0.000002   0.000001
    20  C   -0.043060  -0.044746  -0.003423  -0.003423   0.005170   0.000063
    21  H   -0.006071  -0.003426   0.005217  -0.000603   0.000063   0.000004
    22  H    0.006164  -0.003426  -0.000603   0.005217   0.000063   0.000006
    23  C    0.381305   0.314590  -0.043044  -0.043044  -0.044794  -0.003421
    24  H   -0.041446  -0.043073   0.006163  -0.006071  -0.003430   0.005216
    25  H    0.624631  -0.043073  -0.006071   0.006163  -0.003430  -0.000603
    26  C   -0.043073   5.110482   0.381322   0.381322   0.315076  -0.042986
    27  H   -0.006071   0.381322   0.624543  -0.041436  -0.043094   0.006162
    28  H    0.006163   0.381322  -0.041436   0.624543  -0.043094  -0.006071
    29  C   -0.003430   0.315076  -0.043094  -0.043094   5.109478   0.381315
    30  H   -0.000603  -0.042986   0.006162  -0.006071   0.381315   0.624433
    31  H    0.005216  -0.042986  -0.006071   0.006162   0.381315  -0.041442
    32  C    0.000063  -0.044854  -0.003429  -0.003429   0.316452  -0.043100
    33  H    0.000006  -0.003424   0.005216  -0.000604  -0.042924   0.006160
    34  H    0.000004  -0.003424  -0.000604   0.005216  -0.042924  -0.006071
    35  C    0.000002   0.005213   0.000062   0.000062  -0.045258  -0.003476
    36  H    0.000001   0.000068   0.000004   0.000006  -0.003441   0.005216
    37  H   -0.000003   0.000068   0.000006   0.000004  -0.003441  -0.000607
    38  C    0.000000  -0.000217   0.000002   0.000002   0.005247   0.000056
    39  H    0.000000   0.000002  -0.000003   0.000001   0.000064   0.000005
    40  H    0.000000   0.000002   0.000001  -0.000003   0.000064   0.000005
    41  C    0.000000   0.000002   0.000000   0.000000  -0.000231   0.000002
    42  H    0.000000   0.000000   0.000000   0.000000   0.000001  -0.000003
    43  H    0.000000   0.000000   0.000000   0.000000   0.000003   0.000000
    44  H    0.000000   0.000000   0.000000   0.000000   0.000001   0.000001
              31         32         33         34         35         36
     1  C    0.000000   0.000000   0.000000   0.000000   0.000000   0.000000
     2  H    0.000000   0.000000   0.000000   0.000000   0.000000   0.000000
     3  H    0.000000   0.000000   0.000000   0.000000   0.000000   0.000000
     4  H    0.000000   0.000000   0.000000   0.000000   0.000000   0.000000
     5  C    0.000000   0.000000   0.000000   0.000000   0.000000   0.000000
     6  H    0.000000   0.000000   0.000000   0.000000   0.000000   0.000000
     7  H    0.000000   0.000000   0.000000   0.000000   0.000000   0.000000
     8  C    0.000000   0.000000   0.000000   0.000000   0.000000   0.000000
     9  H    0.000000   0.000000   0.000000   0.000000   0.000000   0.000000
    10  H    0.000000   0.000000   0.000000   0.000000   0.000000   0.000000
    11  C    0.000000   0.000000   0.000000   0.000000   0.000000   0.000000
    12  H    0.000000   0.000000   0.000000   0.000000   0.000000   0.000000
    13  H    0.000000   0.000000   0.000000   0.000000   0.000000   0.000000
    14  C    0.000000   0.000000   0.000000   0.000000   0.000000   0.000000
    15  H    0.000000   0.000000   0.000000   0.000000   0.000000   0.000000
    16  H    0.000000   0.000000   0.000000   0.000000   0.000000   0.000000
    17  C    0.000002   0.000002   0.000000   0.000000   0.000000   0.000000
    18  H    0.000001   0.000000   0.000000   0.000000   0.000000   0.000000
    19  H   -0.000003   0.000000   0.000000   0.000000   0.000000   0.000000
    20  C    0.000063  -0.000217   0.000002   0.000002   0.000002   0.000000
    21  H    0.000006   0.000002  -0.000003   0.000001   0.000000   0.000000
    22  H    0.000004   0.000002   0.000001  -0.000003   0.000000   0.000000
    23  C   -0.003421   0.005174   0.000064   0.000064  -0.000219   0.000002
    24  H   -0.000603   0.000063   0.000004   0.000006   0.000002  -0.000003
    25  H    0.005216   0.000063   0.000006   0.000004   0.000002   0.000001
    26  C   -0.042986  -0.044854  -0.003424  -0.003424   0.005213   0.000068
    27  H   -0.006071  -0.003429   0.005216  -0.000604   0.000062   0.000004
    28  H    0.006162  -0.003429  -0.000604   0.005216   0.000062   0.000006
    29  C    0.381315   0.316452  -0.042924  -0.042924  -0.045258  -0.003441
    30  H   -0.041442  -0.043100   0.006160  -0.006071  -0.003476   0.005216
    31  H    0.624433  -0.043100  -0.006071   0.006160  -0.003476  -0.000607
    32  C   -0.043100   5.103194   0.381269   0.381269   0.320934  -0.042742
    33  H   -0.006071   0.381269   0.623966  -0.041384  -0.042996   0.006167
    34  H    0.006160   0.381269  -0.041384   0.623966  -0.042996  -0.006075
    35  C   -0.003476   0.320934  -0.042996  -0.042996   5.089579   0.381331
    36  H   -0.000607  -0.042742   0.006167  -0.006075   0.381331   0.624272
    37  H    0.005216  -0.042742  -0.006075   0.006167   0.381331  -0.041553
    38  C    0.000056  -0.045537  -0.003543  -0.003543   0.335304  -0.043923
    39  H    0.000005  -0.003566   0.005302  -0.000621  -0.043024   0.006195
    40  H    0.000005  -0.003566  -0.000621   0.005302  -0.043025  -0.006118
    41  C    0.000002   0.005439   0.000061   0.000061  -0.053298  -0.003066
    42  H    0.000001   0.000084   0.000008   0.000002  -0.005313   0.005532
    43  H    0.000000  -0.000233   0.000003   0.000003   0.005311   0.000011
    44  H   -0.000003   0.000084   0.000002   0.000008  -0.005313  -0.000617
              37         38         39         40         41         42
     1  C    0.000000   0.000000   0.000000   0.000000   0.000000   0.000000
     2  H    0.000000   0.000000   0.000000   0.000000   0.000000   0.000000
     3  H    0.000000   0.000000   0.000000   0.000000   0.000000   0.000000
     4  H    0.000000   0.000000   0.000000   0.000000   0.000000   0.000000
     5  C    0.000000   0.000000   0.000000   0.000000   0.000000   0.000000
     6  H    0.000000   0.000000   0.000000   0.000000   0.000000   0.000000
     7  H    0.000000   0.000000   0.000000   0.000000   0.000000   0.000000
     8  C    0.000000   0.000000   0.000000   0.000000   0.000000   0.000000
     9  H    0.000000   0.000000   0.000000   0.000000   0.000000   0.000000
    10  H    0.000000   0.000000   0.000000   0.000000   0.000000   0.000000
    11  C    0.000000   0.000000   0.000000   0.000000   0.000000   0.000000
    12  H    0.000000   0.000000   0.000000   0.000000   0.000000   0.000000
    13  H    0.000000   0.000000   0.000000   0.000000   0.000000   0.000000
    14  C    0.000000   0.000000   0.000000   0.000000   0.000000   0.000000
    15  H    0.000000   0.000000   0.000000   0.000000   0.000000   0.000000
    16  H    0.000000   0.000000   0.000000   0.000000   0.000000   0.000000
    17  C    0.000000   0.000000   0.000000   0.000000   0.000000   0.000000
    18  H    0.000000   0.000000   0.000000   0.000000   0.000000   0.000000
    19  H    0.000000   0.000000   0.000000   0.000000   0.000000   0.000000
    20  C    0.000000   0.000000   0.000000   0.000000   0.000000   0.000000
    21  H    0.000000   0.000000   0.000000   0.000000   0.000000   0.000000
    22  H    0.000000   0.000000   0.000000   0.000000   0.000000   0.000000
    23  C    0.000002   0.000002   0.000000   0.000000   0.000000   0.000000
    24  H    0.000001   0.000000   0.000000   0.000000   0.000000   0.000000
    25  H   -0.000003   0.000000   0.000000   0.000000   0.000000   0.000000
    26  C    0.000068  -0.000217   0.000002   0.000002   0.000002   0.000000
    27  H    0.000006   0.000002  -0.000003   0.000001   0.000000   0.000000
    28  H    0.000004   0.000002   0.000001  -0.000003   0.000000   0.000000
    29  C   -0.003441   0.005247   0.000064   0.000064  -0.000231   0.000001
    30  H   -0.000607   0.000056   0.000005   0.000005   0.000002  -0.000003
    31  H    0.005216   0.000056   0.000005   0.000005   0.000002   0.000001
    32  C   -0.042742  -0.045537  -0.003566  -0.003566   0.005439   0.000084
    33  H   -0.006075  -0.003543   0.005302  -0.000621   0.000061   0.000008
    34  H    0.006167  -0.003543  -0.000621   0.005302   0.000061   0.000002
    35  C    0.381331   0.335304  -0.043024  -0.043025  -0.053298  -0.005313
    36  H   -0.041553  -0.043923   0.006195  -0.006118  -0.003066   0.005532
    37  H    0.624272  -0.043923  -0.006118   0.006195  -0.003066  -0.000617
    38  C   -0.043923   5.057562   0.383626   0.383626   0.326724  -0.039246
    39  H   -0.006118   0.383626   0.619860  -0.040472  -0.041921   0.005729
[...]
    13  H    0.005096   0.000042   0.000004   0.000005   0.000002   0.000001
    14  C   -0.043606  -0.035253  -0.002926  -0.002926   0.003822   0.000042
    15  H   -0.005725  -0.002926   0.005093  -0.000545   0.000042   0.000005
    16  H    0.005881  -0.002926  -0.000545   0.005093   0.000042   0.000004
    17  C    0.375598   0.313231  -0.043601  -0.043601  -0.035256  -0.002927
    18  H   -0.042250  -0.043590   0.005880  -0.005724  -0.002926   0.005093
    19  H    0.631081  -0.043590  -0.005724   0.005880  -0.002926  -0.000544
    20  C   -0.043590   5.109540   0.375601   0.375601   0.313256  -0.043596
    21  H   -0.005724   0.375601   0.631069  -0.042246  -0.043596   0.005880
    22  H    0.005880   0.375601  -0.042246   0.631069  -0.043596  -0.005724
    23  C   -0.002926   0.313256  -0.043596  -0.043596   5.109540   0.375601
    24  H   -0.000544  -0.043596   0.005880  -0.005724   0.375601   0.631069
    25  H    0.005093  -0.043596  -0.005724   0.005880   0.375601  -0.042246
    26  C    0.000042  -0.035256  -0.002927  -0.002927   0.313231  -0.043601
    27  H    0.000004  -0.002926   0.005093  -0.000544  -0.043590   0.005880
    28  H    0.000005  -0.002926  -0.000544   0.005093  -0.043590  -0.005724
    29  C    0.000002   0.003822   0.000042   0.000042  -0.035253  -0.002926
    30  H    0.000001   0.000042   0.000005   0.000004  -0.002926   0.005093
    31  H   -0.000002   0.000042   0.000004   0.000005  -0.002926  -0.000545
    32  C    0.000000  -0.000140   0.000002   0.000002   0.003826   0.000042
    33  H    0.000000   0.000002  -0.000002   0.000001   0.000042   0.000005
    34  H    0.000000   0.000002   0.000001  -0.000002   0.000042   0.000004
    35  C    0.000000   0.000001   0.000000   0.000000  -0.000141   0.000002
    36  H    0.000000   0.000000   0.000000   0.000000   0.000001  -0.000002
    37  H    0.000000   0.000000   0.000000   0.000000   0.000001   0.000001
    38  C    0.000000   0.000000   0.000000   0.000000   0.000001   0.000000
    39  H    0.000000   0.000000   0.000000   0.000000   0.000000   0.000000
    40  H    0.000000   0.000000   0.000000   0.000000   0.000000   0.000000
    41  C    0.000000   0.000000   0.000000   0.000000   0.000000   0.000000
    42  H    0.000000   0.000000   0.000000   0.000000   0.000000   0.000000
    43  H    0.000000   0.000000   0.000000   0.000000   0.000000   0.000000
    44  H    0.000000   0.000000   0.000000   0.000000   0.000000   0.000000
              25         26         27         28         29         30
     1  C    0.000000   0.000000   0.000000   0.000000   0.000000   0.000000
     2  H    0.000000   0.000000   0.000000   0.000000   0.000000   0.000000
     3  H    0.000000   0.000000   0.000000   0.000000   0.000000   0.000000
     4  H    0.000000   0.000000   0.000000   0.000000   0.000000   0.000000
     5  C    0.000000   0.000000   0.000000   0.000000   0.000000   0.000000
     6  H    0.000000   0.000000   0.000000   0.000000   0.000000   0.000000
     7  H    0.000000   0.000000   0.000000   0.000000   0.000000   0.000000
     8  C    0.000000   0.000000   0.000000   0.000000   0.000000   0.000000
     9  H    0.000000   0.000000   0.000000   0.000000   0.000000   0.000000
    10  H    0.000000   0.000000   0.000000   0.000000   0.000000   0.000000
    11  C    0.000002   0.000001   0.000000   0.000000   0.000000   0.000000
    12  H    0.000001   0.000000   0.000000   0.000000   0.000000   0.000000
    13  H   -0.000002   0.000000   0.000000   0.000000   0.000000   0.000000
    14  C    0.000042  -0.000140   0.000002   0.000002   0.000001   0.000000
    15  H    0.000004   0.000002  -0.000002   0.000001   0.000000   0.000000
    16  H    0.000005   0.000002   0.000001  -0.000002   0.000000   0.000000
    17  C   -0.002927   0.003823   0.000042   0.000042  -0.000140   0.000002
    18  H   -0.000544   0.000042   0.000005   0.000004   0.000002  -0.000002
    19  H    0.005093   0.000042   0.000004   0.000005   0.000002   0.000001
    20  C   -0.043596  -0.035256  -0.002926  -0.002926   0.003822   0.000042
    21  H   -0.005724  -0.002927   0.005093  -0.000544   0.000042   0.000005
    22  H    0.005880  -0.002927  -0.000544   0.005093   0.000042   0.000004
    23  C    0.375601   0.313231  -0.043590  -0.043590  -0.035253  -0.002926
    24  H   -0.042246  -0.043601   0.005880  -0.005724  -0.002926   0.005093
    25  H    0.631069  -0.043601  -0.005724   0.005880  -0.002926  -0.000545
    26  C   -0.043601   5.109401   0.375598   0.375598   0.313345  -0.043572
    27  H   -0.005724   0.375598   0.631081  -0.042250  -0.043606   0.005881
    28  H    0.005880   0.375598  -0.042250   0.631081  -0.043606  -0.005725
    29  C   -0.002926   0.313345  -0.043606  -0.043606   5.108661   0.375621
    30  H   -0.000545  -0.043572   0.005881  -0.005725   0.375621   0.631026
    31  H    0.005093  -0.043572  -0.005725   0.005881   0.375621  -0.042253
    32  C    0.000042  -0.035295  -0.002929  -0.002929   0.314410  -0.043597
    33  H    0.000004  -0.002924   0.005096  -0.000545  -0.043564   0.005882
    34  H    0.000005  -0.002924  -0.000545   0.005096  -0.043564  -0.005728
    35  C    0.000002   0.003855   0.000041   0.000041  -0.035535  -0.002964
    36  H    0.000001   0.000046   0.000005   0.000004  -0.002978   0.005083
    37  H   -0.000002   0.000046   0.000004   0.000005  -0.002978  -0.000546
    38  C    0.000000  -0.000141   0.000002   0.000002   0.003899   0.000037
    39  H    0.000000   0.000002  -0.000002   0.000001   0.000038   0.000005
    40  H    0.000000   0.000002   0.000001  -0.000002   0.000038   0.000003
    41  C    0.000000   0.000001   0.000000   0.000000  -0.000153   0.000002
    42  H    0.000000   0.000000   0.000000   0.000000   0.000001  -0.000001
    43  H    0.000000   0.000000   0.000000   0.000000   0.000001   0.000000
    44  H    0.000000   0.000000   0.000000   0.000000   0.000001   0.000000
              31         32         33         34         35         36
     1  C    0.000000   0.000000   0.000000   0.000000   0.000000   0.000000
     2  H    0.000000   0.000000   0.000000   0.000000   0.000000   0.000000
     3  H    0.000000   0.000000   0.000000   0.000000   0.000000   0.000000
     4  H    0.000000   0.000000   0.000000   0.000000   0.000000   0.000000
     5  C    0.000000   0.000000   0.000000   0.000000   0.000000   0.000000
     6  H    0.000000   0.000000   0.000000   0.000000   0.000000   0.000000
     7  H    0.000000   0.000000   0.000000   0.000000   0.000000   0.000000
     8  C    0.000000   0.000000   0.000000   0.000000   0.000000   0.000000
     9  H    0.000000   0.000000   0.000000   0.000000   0.000000   0.000000
    10  H    0.000000   0.000000   0.000000   0.000000   0.000000   0.000000
    11  C    0.000000   0.000000   0.000000   0.000000   0.000000   0.000000
    12  H    0.000000   0.000000   0.000000   0.000000   0.000000   0.000000
    13  H    0.000000   0.000000   0.000000   0.000000   0.000000   0.000000
    14  C    0.000000   0.000000   0.000000   0.000000   0.000000   0.000000
    15  H    0.000000   0.000000   0.000000   0.000000   0.000000   0.000000
    16  H    0.000000   0.000000   0.000000   0.000000   0.000000   0.000000
    17  C    0.000002   0.000001   0.000000   0.000000   0.000000   0.000000
    18  H    0.000001   0.000000   0.000000   0.000000   0.000000   0.000000
    19  H   -0.000002   0.000000   0.000000   0.000000   0.000000   0.000000
    20  C    0.000042  -0.000140   0.000002   0.000002   0.000001   0.000000
    21  H    0.000004   0.000002  -0.000002   0.000001   0.000000   0.000000
    22  H    0.000005   0.000002   0.000001  -0.000002   0.000000   0.000000
    23  C   -0.002926   0.003826   0.000042   0.000042  -0.000141   0.000001
    24  H   -0.000545   0.000042   0.000005   0.000004   0.000002  -0.000002
    25  H    0.005093   0.000042   0.000004   0.000005   0.000002   0.000001
    26  C   -0.043572  -0.035295  -0.002924  -0.002924   0.003855   0.000046
    27  H   -0.005725  -0.002929   0.005096  -0.000545   0.000041   0.000005
    28  H    0.005881  -0.002929  -0.000545   0.005096   0.000041   0.000004
    29  C    0.375621   0.314410  -0.043564  -0.043564  -0.035535  -0.002978
    30  H   -0.042253  -0.043597   0.005882  -0.005728  -0.002964   0.005083
    31  H    0.631026  -0.043597  -0.005728   0.005882  -0.002964  -0.000546
    32  C   -0.043597   5.103842   0.375549   0.375549   0.318145  -0.043322
    33  H   -0.005728   0.375549   0.631206  -0.042286  -0.043590   0.005889
    34  H    0.005882   0.375549  -0.042286   0.631206  -0.043590  -0.005731
    35  C   -0.002964   0.318145  -0.043590  -0.043590   5.091857   0.375745
    36  H   -0.000546  -0.043322   0.005889  -0.005731   0.375745   0.631855
    37  H    0.005083  -0.043322  -0.005731   0.005889   0.375745  -0.042467
    38  C    0.000037  -0.036062  -0.003042  -0.003042   0.330893  -0.044285
    39  H    0.000003  -0.003078   0.005203  -0.000565  -0.043803   0.005935
    40  H    0.000005  -0.003078  -0.000565   0.005203  -0.043803  -0.005816
    41  C    0.000002   0.004135   0.000042   0.000042  -0.044811  -0.002493
    42  H    0.000000   0.000049   0.000006   0.000001  -0.004407   0.004950
    43  H    0.000000  -0.000159   0.000002   0.000002   0.004321  -0.000016
    44  H   -0.000001   0.000049   0.000001   0.000006  -0.004407  -0.000498
              37         38         39         40         41         42
     1  C    0.000000   0.000000   0.000000   0.000000   0.000000   0.000000
     2  H    0.000000   0.000000   0.000000   0.000000   0.000000   0.000000
     3  H    0.000000   0.000000   0.000000   0.000000   0.000000   0.000000
     4  H    0.000000   0.000000   0.000000   0.000000   0.000000   0.000000
     5  C    0.000000   0.000000   0.000000   0.000000   0.000000   0.000000
     6  H    0.000000   0.000000   0.000000   0.000000   0.000000   0.000000
     7  H    0.000000   0.000000   0.000000   0.000000   0.000000   0.000000
     8  C    0.000000   0.000000   0.000000   0.000000   0.000000   0.000000
     9  H    0.000000   0.000000   0.000000   0.000000   0.000000   0.000000
    10  H    0.000000   0.000000   0.000000   0.000000   0.000000   0.000000
    11  C    0.000000   0.000000   0.000000   0.000000   0.000000   0.000000
    12  H    0.000000   0.000000   0.000000   0.000000   0.000000   0.000000
    13  H    0.000000   0.000000   0.000000   0.000000   0.000000   0.000000
    14  C    0.000000   0.000000   0.000000   0.000000   0.000000   0.000000
    15  H    0.000000   0.000000   0.000000   0.000000   0.000000   0.000000
    16  H    0.000000   0.000000   0.000000   0.000000   0.000000   0.000000
    17  C    0.000000   0.000000   0.000000   0.000000   0.000000   0.000000
    18  H    0.000000   0.000000   0.000000   0.000000   0.000000   0.000000
    19  H    0.000000   0.000000   0.000000   0.000000   0.000000   0.000000
    20  C    0.000000   0.000000   0.000000   0.000000   0.000000   0.000000
    21  H    0.000000   0.000000   0.000000   0.000000   0.000000   0.000000
    22  H    0.000000   0.000000   0.000000   0.000000   0.000000   0.000000
    23  C    0.000001   0.000001   0.000000   0.000000   0.000000   0.000000
    24  H    0.000001   0.000000   0.000000   0.000000   0.000000   0.000000
    25  H   -0.000002   0.000000   0.000000   0.000000   0.000000   0.000000
    26  C    0.000046  -0.000141   0.000002   0.000002   0.000001   0.000000
    27  H    0.000004   0.000002  -0.000002   0.000001   0.000000   0.000000
    28  H    0.000005   0.000002   0.000001  -0.000002   0.000000   0.000000
    29  C   -0.002978   0.003899   0.000038   0.000038  -0.000153   0.000001
    30  H   -0.000546   0.000037   0.000005   0.000003   0.000002  -0.000001
    31  H    0.005083   0.000037   0.000003   0.000005   0.000002   0.000000
    32  C   -0.043322  -0.036062  -0.003078  -0.003078   0.004135   0.000049
    33  H   -0.005731  -0.003042   0.005203  -0.000565   0.000042   0.000006
    34  H    0.005889  -0.003042  -0.000565   0.005203   0.000042   0.000001
    35  C    0.375745   0.330893  -0.043803  -0.043803  -0.044811  -0.004407
    36  H   -0.042467  -0.044285   0.005935  -0.005816  -0.002493   0.004950
    37  H    0.631855  -0.044285  -0.005816   0.005935  -0.002493  -0.000498
    38  C   -0.044285   5.054514   0.378642   0.378642   0.325840  -0.037846
    39  H   -0.005816   0.378642   0.626252  -0.041714  -0.041273   0.005240
    40  H    0.005935   0.378642  -0.041714   0.626252  -0.041273  -0.004739
    41  C   -0.002493   0.325840  -0.041273  -0.041273   5.086867   0.376332
    42  H   -0.000498  -0.037846   0.005240  -0.004739   0.376332   0.597870
    43  H   -0.000016  -0.029400  -0.002673  -0.002673   0.368102  -0.033089
    44  H    0.004950  -0.037846  -0.004739   0.005240   0.376332  -0.034445
              43         44
     1  C    0.000000   0.000000
     2  H    0.000000   0.000000
     3  H    0.000000   0.000000
     4  H    0.000000   0.000000
     5  C    0.000000   0.000000
     6  H    0.000000   0.000000
     7  H    0.000000   0.000000
     8  C    0.000000   0.000000
     9  H    0.000000   0.000000
    10  H    0.000000   0.000000
    11  C    0.000000   0.000000
    12  H    0.000000   0.000000
    13  H    0.000000   0.000000
    14  C    0.000000   0.000000
    15  H    0.000000   0.000000
    16  H    0.000000   0.000000
    17  C    0.000000   0.000000
    18  H    0.000000   0.000000
    19  H    0.000000   0.000000
    20  C    0.000000   0.000000
    21  H    0.000000   0.000000
    22  H    0.000000   0.000000
    23  C    0.000000   0.000000
    24  H    0.000000   0.000000
    25  H    0.000000   0.000000
    26  C    0.000000   0.000000
    27  H    0.000000   0.000000
    28  H    0.000000   0.000000
    29  C    0.000001   0.000001
    30  H    0.000000   0.000000
    31  H    0.000000  -0.000001
    32  C   -0.000159   0.000049
    33  H    0.000002   0.000001
    34  H    0.000002   0.000006
    35  C    0.004321  -0.004407
    36  H   -0.000016  -0.000498
    37  H   -0.000016   0.004950
    38  C   -0.029400  -0.037846
    39  H   -0.002673  -0.004739
    40  H   -0.002673   0.005240
    41  C    0.368102   0.376332
    42  H   -0.033089  -0.034445
    43  H    0.599497  -0.033089
    44  H   -0.033089   0.597870
 Mulliken charges:
               1
     1  C   -0.405201
     2  H    0.130575
     3  H    0.130575
     4  H    0.129189
     5  C   -0.236560
     6  H    0.122342
     7  H    0.122342
     8  C   -0.230631
     9  H    0.118638
    10  H    0.118638
    11  C   -0.238132
    12  H    0.119046
    13  H    0.119046
    14  C   -0.238317
    15  H    0.119170
    16  H    0.119170
    17  C   -0.238159
    18  H    0.119111
    19  H    0.119111
    20  C   -0.238185
    21  H    0.119116
    22  H    0.119116
    23  C   -0.238185
    24  H    0.119116
    25  H    0.119116
    26  C   -0.238159
    27  H    0.119111
    28  H    0.119111
    29  C   -0.238317
    30  H    0.119170
    31  H    0.119170
    32  C   -0.238132
    33  H    0.119046
    34  H    0.119046
    35  C   -0.230631
    36  H    0.118638
    37  H    0.118638
    38  C   -0.236560
    39  H    0.122342
    40  H    0.122342
    41  C   -0.405201
    42  H    0.130575
    43  H    0.129189
    44  H    0.130575
 Sum of Mulliken charges =   0.00000
 Mulliken charges with hydrogens summed into heavy atoms:
               1
     1  C   -0.014861
     5  C    0.008124
     8  C    0.006645
    11  C   -0.000041
    14  C    0.000023
    17  C    0.000064
    20  C    0.000046
    23  C    0.000046
    26  C    0.000064
    29  C    0.000023
    32  C   -0.000041
    35  C    0.006645
    38  C    0.008124
    41  C   -0.014861
 Electronic spatial extent (au):  <R**2>=          11846.7499
 Charge=              0.0000 electrons
 Dipole moment (field-independent basis, Debye):
    X=              0.0000    Y=              0.0000    Z=              0.0000  Tot=              0.0000
 Quadrupole moment (field-independent basis, Debye-Ang):
   XX=            -95.9699   YY=            -96.4614   ZZ=            -93.6524
   XY=              0.5738   XZ=              0.0000   YZ=              0.0000
 Traceless Quadrupole moment (field-independent basis, Debye-Ang):
   XX=             -0.6087   YY=             -1.1001   ZZ=              1.7088
   XY=              0.5738   XZ=              0.0000   YZ=              0.0000
 Octapole moment (field-independent basis, Debye-Ang**2):
  XXX=              0.0000  YYY=              0.0000  ZZZ=              0.0000  XYY=              0.0000
  XXY=              0.0000  XXZ=              0.0000  XZZ=              0.0000  YZZ=              0.0000
  YYZ=              0.0000  XYZ=              0.0000
 Hexadecapole moment (field-independent basis, Debye-Ang**3):
 XXXX=           -515.2809 YYYY=         -16042.0433 ZZZZ=           -196.0845 XXXY=            832.9496
 XXXZ=              0.0000 YYYX=            912.2703 YYYZ=              0.0000 ZZZX=              0.0000
 ZZZY=              0.0000 XXYY=          -2758.8009 XXZZ=           -110.1134 YYZZ=          -2647.2014
 XXYZ=              0.0000 YYXZ=              0.0000 ZZXY=            268.6098
 N-N= 8.286141523553D+02 E-N=-2.932325636792D+03  KE= 5.481408084754D+02
 Symmetry A    KE= 2.754910258159D+02
 Symmetry B    KE= 2.726497826595D+02
 1|1|UNPC-6424705A076343F|FOpt|RB3LYP|6-31G|C14H30|TKMELDRUM|14-Mar-202
 3|0||# opt b3lyp/6-31g geom=connectivity||Title Card Required||0,1|C,-
 9.7489094423,-3.5409040586,-0.0869936854|H,-9.4120287806,-4.5848075534
 ,-0.1216429677|H,-9.4087829426,-3.0517386578,-1.008652426|H,-10.845205
 5143,-3.5428566502,-0.0943801394|C,-9.1962301344,-2.8234375337,1.15506
 69368|H,-9.5750386634,-1.7908583485,1.1818823514|H,-9.5782626739,-3.31
 3617514,2.0629267648|C,-7.6574403961,-2.798108442,1.2044755578|H,-7.27
 4472602,-2.3073267295,0.2961655778|H,-7.2776993582,-3.8313807464,1.177
 9591713|C,-7.0949092138,-2.0813962438,2.4452684716|H,-7.4786966952,-2.
 5725717357,3.3529262283|H,-7.4754698845,-1.048490521,2.4711168908|C,-5
 .5563899547,-2.0563207429,2.4942378053|H,-5.1725678125,-1.5651385224,1
 .5866373737|H,-5.1757945363,-3.0891802285,2.4684238505|C,-4.9941167489
 ,-1.3395065527,3.7352060518|H,-5.3779246144,-1.8306936976,4.6428218048
 |H,-5.3746978481,-0.3066313739,3.7610233985|C,-3.4556364392,-1.3144866
 267,3.7840791721|H,-3.0718261184,-0.8232976399,2.87646543|H,-3.0750528
 863,-2.3473609885,3.758264431|C,-2.89336921,-0.5976776296,5.025038423|
 H,-3.2771795258,-1.0888666219,5.9326521648|H,-3.273952768,0.4351967297
 ,5.050853169|C,-1.3548889002,-0.5726576985,5.0739115403|H,-0.971081040
 4,-0.0814705501,4.1662957871|H,-0.9743077955,-1.6055328754,5.048094190
 7|C,-0.7926156944,0.1441564901,6.3148797878|H,-1.1764378299,-0.3470257
 32,7.222480219|H,-1.1732111197,1.1770159752,6.3406937442|C,0.745903564
 6,0.1692320114,6.3638491097|H,1.129691036,0.6604075092,5.4561913525|H,
 1.1264642454,-0.863673708,6.3380006856|C,1.308434747,0.8859442097,7.60
 46420235|H,0.9254669659,0.3951625018,8.5129520056|H,0.9286936959,1.919
 2165146,7.6311584048|C,2.8472244853,0.9112733236,7.6540506316|H,3.2292
 570159,1.4014533034,6.7461907995|H,3.2260330232,-0.1213058583,7.627235
 2194|C,3.3999037932,1.6287398603,8.896111247|H,3.0597773021,1.13957446
 24,9.8177699924|H,4.4961998652,1.6306924588,8.903497697|H,3.063023123,
 2.6726433524,8.9307605243||Version=EM64W-G16RevB.01|State=1-A|HF=-551.
 4615882|RMSD=4.677e-009|RMSF=2.501e-005|Dipole=0.,0.,0.|Quadrupole=-0.
 3576988,0.7234914,-0.3657926,-0.1836843,-0.3234299,-0.9460232|PG=C02 [
 X(C14H30)]||@


 A warm smile is the universal language of kindness.
                             -- William Arthur Ward
 Job cpu time:       0 days  0 hours 12 minutes 16.0 seconds.
 Elapsed time:       0 days  0 hours 12 minutes 10.8 seconds.
 File lengths (MBytes):  RWF=     33 Int=      0 D2E=      0 Chk=      5 Scr=      1
 Normal termination of Gaussian 16 at Tue Mar 14 10:50:20 2023.
