 Entering Link 1 = C:\Gaussian\l1.exe PID=      7372.
  
 Copyright (c) 1988-2017, Gaussian, Inc.  All Rights Reserved.
  
 This is part of the Gaussian(R) 16 program.  It is based on
 the Gaussian(R) 09 system (copyright 2009, Gaussian, Inc.),
 the Gaussian(R) 03 system (copyright 2003, Gaussian, Inc.),
 the Gaussian(R) 98 system (copyright 1998, Gaussian, Inc.),
 the Gaussian(R) 94 system (copyright 1995, Gaussian, Inc.),
 the Gaussian 92(TM) system (copyright 1992, Gaussian, Inc.),
 the Gaussian 90(TM) system (copyright 1990, Gaussian, Inc.),
 the Gaussian 88(TM) system (copyright 1988, Gaussian, Inc.),
 the Gaussian 86(TM) system (copyright 1986, Carnegie Mellon
 University), and the Gaussian 82(TM) system (copyright 1983,
 Carnegie Mellon University). Gaussian is a federally registered
 trademark of Gaussian, Inc.
  
 This software contains proprietary and confidential information,
 including trade secrets, belonging to Gaussian, Inc.
  
 This software is provided under written license and may be
 used, copied, transmitted, or stored only in accord with that
 written license.
  
 The following legend is applicable only to US Government
 contracts under FAR:
  
                    RESTRICTED RIGHTS LEGEND
  
 Use, reproduction and disclosure by the US Government is
 subject to restrictions as set forth in subparagraphs (a)
 and (c) of the Commercial Computer Software - Restricted
 Rights clause in FAR 52.227-19.
  
 Gaussian, Inc.
 340 Quinnipiac St., Bldg. 40, Wallingford CT 06492
  
  
 ---------------------------------------------------------------
 Warning -- This program may not be used in any manner that
 competes with the business of Gaussian, Inc. or will provide
 assistance to any competitor of Gaussian, Inc.  The licensee
 of this program is prohibited from giving any competitor of
 Gaussian, Inc. access to this program.  By using this program,
 the user acknowledges that Gaussian, Inc. is engaged in the
 business of creating and licensing software in the field of
 computational chemistry and represents and warrants to the
 licensee that it is not a competitor of Gaussian, Inc. and that
 it will not use this program in any manner prohibited above.
 ---------------------------------------------------------------
  

 Cite this work as:
 Gaussian 16, Revision B.01,
 M. J. Frisch, G. W. Trucks, H. B. Schlegel, G. E. Scuseria, 
 M. A. Robb, J. R. Cheeseman, G. Scalmani, V. Barone, 
 G. A. Petersson, H. Nakatsuji, X. Li, M. Caricato, A. V. Marenich, 
 J. Bloino, B. G. Janesko, R. Gomperts, B. Mennucci, H. P. Hratchian, 
 J. V. Ortiz, A. F. Izmaylov, J. L. Sonnenberg, D. Williams-Young, 
 F. Ding, F. Lipparini, F. Egidi, J. Goings, B. Peng, A. Petrone, 
 T. Henderson, D. Ranasinghe, V. G. Zakrzewski, J. Gao, N. Rega, 
 G. Zheng, W. Liang, M. Hada, M. Ehara, K. Toyota, R. Fukuda, 
 J. Hasegawa, M. Ishida, T. Nakajima, Y. Honda, O. Kitao, H. Nakai, 
 T. Vreven, K. Throssell, J. A. Montgomery, Jr., J. E. Peralta, 
 F. Ogliaro, M. J. Bearpark, J. J. Heyd, E. N. Brothers, K. N. Kudin, 
 V. N. Staroverov, T. A. Keith, R. Kobayashi, J. Normand, 
 K. Raghavachari, A. P. Rendell, J. C. Burant, S. S. Iyengar, 
 J. Tomasi, M. Cossi, J. M. Millam, M. Klene, C. Adamo, R. Cammi, 
 J. W. Ochterski, R. L. Martin, K. Morokuma, O. Farkas, 
 J. B. Foresman, and D. J. Fox, Gaussian, Inc., Wallingford CT, 2016.
 
 ******************************************
 Gaussian 16:  EM64W-G16RevB.01 16-Dec-2017
                14-Mar-2023 
 ******************************************
 %chk=C:\Users\tkmeldrum\Documents\MDworking\C10H22.chk
 -----------------------------------
 # opt b3lyp/6-31g geom=connectivity
 -----------------------------------
 1/18=20,19=15,26=3,38=1,57=2/1,3;
 2/9=110,12=2,17=6,18=5,40=1/2;
 3/5=1,6=6,11=2,25=1,30=1,71=1,74=-5/1,2,3;
 4//1;
 5/5=2,38=5/2;
 6/7=2,8=2,9=2,10=2,28=1/1;
 7//1,2,3,16;
 1/18=20,19=15,26=3/3(2);
 2/9=110/2;
 99//99;
 2/9=110/2;
 3/5=1,6=6,11=2,25=1,30=1,71=1,74=-5/1,2,3;
 4/5=5,16=3,69=1/1;
 5/5=2,38=5/2;
 7//1,2,3,16;
 1/18=20,19=15,26=3/3(-5);
 2/9=110/2;
 6/7=2,8=2,9=2,10=2,19=2,28=1/1;
 99/9=1/99;
 -------------------
 Title Card Required
 -------------------
 Symbolic Z-matrix:
 Charge =  0 Multiplicity = 1
 C                    -7.61006   0.31444   0.00001 
 H                    -7.25356  -0.69442   0.00013 
 H                    -7.25324   0.81871  -0.87365 
 H                    -8.68006   0.31462  -0.00008 
 C                    -7.09672   1.04043   1.2574 
 H                    -7.45322   2.04929   1.25728 
 H                    -7.45355   0.53616   2.13106 
 C                    -5.55672   1.04017   1.25754 
 H                    -5.19989   1.54444   0.38387 
 H                    -5.20022   0.03131   1.25765 
 C                    -5.04338   1.76616   2.51492 
 H                    -5.40021   1.26189   3.38859 
 H                    -5.39988   2.77502   2.51481 
 C                    -3.50338   1.7659    2.51506 
 H                    -3.14655   2.27017   1.6414 
 H                    -3.14688   0.75704   2.51518 
 C                    -2.99004   2.49189   3.77245 
 H                    -3.34686   1.98762   4.64611 
 H                    -3.34654   3.50075   3.77233 
 C                    -1.45004   2.49164   3.77258 
 H                    -1.09321   2.99591   2.89892 
 H                    -1.09354   1.48277   3.7727 
 C                    -0.93669   3.21762   5.02997 
 H                    -1.29352   2.71335   5.90364 
 H                    -1.29319   4.22649   5.02986 
 C                     0.60331   3.21737   5.03011 
 H                     0.96013   3.72164   4.15645 
 H                     0.95981   2.2085    5.03023 
 C                     1.11665   3.94335   6.2875 
 H                     0.75982   3.43908   7.16116 
 H                     2.18665   3.94317   6.28759 
 H                     0.76015   4.95222   6.28738 
 

 GradGradGradGradGradGradGradGradGradGradGradGradGradGradGradGradGradGrad
 Berny optimization.
 Initialization pass.
                           ----------------------------
                           !    Initial Parameters    !
                           ! (Angstroms and Degrees)  !
 --------------------------                            --------------------------
 ! Name  Definition              Value          Derivative Info.                !
 --------------------------------------------------------------------------------
 ! R1    R(1,2)                  1.07           estimate D2E/DX2                !
 ! R2    R(1,3)                  1.07           estimate D2E/DX2                !
 ! R3    R(1,4)                  1.07           estimate D2E/DX2                !
 ! R4    R(1,5)                  1.54           estimate D2E/DX2                !
 ! R5    R(5,6)                  1.07           estimate D2E/DX2                !
 ! R6    R(5,7)                  1.07           estimate D2E/DX2                !
 ! R7    R(5,8)                  1.54           estimate D2E/DX2                !
 ! R8    R(8,9)                  1.07           estimate D2E/DX2                !
 ! R9    R(8,10)                 1.07           estimate D2E/DX2                !
 ! R10   R(8,11)                 1.54           estimate D2E/DX2                !
 ! R11   R(11,12)                1.07           estimate D2E/DX2                !
 ! R12   R(11,13)                1.07           estimate D2E/DX2                !
 ! R13   R(11,14)                1.54           estimate D2E/DX2                !
 ! R14   R(14,15)                1.07           estimate D2E/DX2                !
 ! R15   R(14,16)                1.07           estimate D2E/DX2                !
 ! R16   R(14,17)                1.54           estimate D2E/DX2                !
 ! R17   R(17,18)                1.07           estimate D2E/DX2                !
 ! R18   R(17,19)                1.07           estimate D2E/DX2                !
 ! R19   R(17,20)                1.54           estimate D2E/DX2                !
 ! R20   R(20,21)                1.07           estimate D2E/DX2                !
 ! R21   R(20,22)                1.07           estimate D2E/DX2                !
 ! R22   R(20,23)                1.54           estimate D2E/DX2                !
 ! R23   R(23,24)                1.07           estimate D2E/DX2                !
 ! R24   R(23,25)                1.07           estimate D2E/DX2                !
 ! R25   R(23,26)                1.54           estimate D2E/DX2                !
 ! R26   R(26,27)                1.07           estimate D2E/DX2                !
 ! R27   R(26,28)                1.07           estimate D2E/DX2                !
 ! R28   R(26,29)                1.54           estimate D2E/DX2                !
 ! R29   R(29,30)                1.07           estimate D2E/DX2                !
 ! R30   R(29,31)                1.07           estimate D2E/DX2                !
 ! R31   R(29,32)                1.07           estimate D2E/DX2                !
 ! A1    A(2,1,3)              109.4712         estimate D2E/DX2                !
 ! A2    A(2,1,4)              109.4712         estimate D2E/DX2                !
 ! A3    A(2,1,5)              109.4712         estimate D2E/DX2                !
 ! A4    A(3,1,4)              109.4712         estimate D2E/DX2                !
 ! A5    A(3,1,5)              109.4712         estimate D2E/DX2                !
 ! A6    A(4,1,5)              109.4712         estimate D2E/DX2                !
 ! A7    A(1,5,6)              109.4712         estimate D2E/DX2                !
 ! A8    A(1,5,7)              109.4712         estimate D2E/DX2                !
 ! A9    A(1,5,8)              109.4712         estimate D2E/DX2                !
 ! A10   A(6,5,7)              109.4712         estimate D2E/DX2                !
 ! A11   A(6,5,8)              109.4712         estimate D2E/DX2                !
 ! A12   A(7,5,8)              109.4712         estimate D2E/DX2                !
 ! A13   A(5,8,9)              109.4712         estimate D2E/DX2                !
 ! A14   A(5,8,10)             109.4712         estimate D2E/DX2                !
 ! A15   A(5,8,11)             109.4712         estimate D2E/DX2                !
 ! A16   A(9,8,10)             109.4712         estimate D2E/DX2                !
 ! A17   A(9,8,11)             109.4712         estimate D2E/DX2                !
 ! A18   A(10,8,11)            109.4712         estimate D2E/DX2                !
 ! A19   A(8,11,12)            109.4712         estimate D2E/DX2                !
 ! A20   A(8,11,13)            109.4712         estimate D2E/DX2                !
 ! A21   A(8,11,14)            109.4712         estimate D2E/DX2                !
 ! A22   A(12,11,13)           109.4712         estimate D2E/DX2                !
 ! A23   A(12,11,14)           109.4712         estimate D2E/DX2                !
 ! A24   A(13,11,14)           109.4712         estimate D2E/DX2                !
 ! A25   A(11,14,15)           109.4712         estimate D2E/DX2                !
 ! A26   A(11,14,16)           109.4712         estimate D2E/DX2                !
 ! A27   A(11,14,17)           109.4712         estimate D2E/DX2                !
 ! A28   A(15,14,16)           109.4712         estimate D2E/DX2                !
 ! A29   A(15,14,17)           109.4712         estimate D2E/DX2                !
 ! A30   A(16,14,17)           109.4712         estimate D2E/DX2                !
 ! A31   A(14,17,18)           109.4712         estimate D2E/DX2                !
 ! A32   A(14,17,19)           109.4712         estimate D2E/DX2                !
 ! A33   A(14,17,20)           109.4712         estimate D2E/DX2                !
 ! A34   A(18,17,19)           109.4712         estimate D2E/DX2                !
 ! A35   A(18,17,20)           109.4712         estimate D2E/DX2                !
 ! A36   A(19,17,20)           109.4712         estimate D2E/DX2                !
 ! A37   A(17,20,21)           109.4712         estimate D2E/DX2                !
 ! A38   A(17,20,22)           109.4712         estimate D2E/DX2                !
 ! A39   A(17,20,23)           109.4712         estimate D2E/DX2                !
 ! A40   A(21,20,22)           109.4712         estimate D2E/DX2                !
 ! A41   A(21,20,23)           109.4712         estimate D2E/DX2                !
 ! A42   A(22,20,23)           109.4712         estimate D2E/DX2                !
 ! A43   A(20,23,24)           109.4712         estimate D2E/DX2                !
 ! A44   A(20,23,25)           109.4712         estimate D2E/DX2                !
 ! A45   A(20,23,26)           109.4712         estimate D2E/DX2                !
 ! A46   A(24,23,25)           109.4712         estimate D2E/DX2                !
 ! A47   A(24,23,26)           109.4712         estimate D2E/DX2                !
 ! A48   A(25,23,26)           109.4712         estimate D2E/DX2                !
 ! A49   A(23,26,27)           109.4712         estimate D2E/DX2                !
 ! A50   A(23,26,28)           109.4712         estimate D2E/DX2                !
 ! A51   A(23,26,29)           109.4712         estimate D2E/DX2                !
 ! A52   A(27,26,28)           109.4712         estimate D2E/DX2                !
 ! A53   A(27,26,29)           109.4712         estimate D2E/DX2                !
 ! A54   A(28,26,29)           109.4712         estimate D2E/DX2                !
 ! A55   A(26,29,30)           109.4712         estimate D2E/DX2                !
 ! A56   A(26,29,31)           109.4712         estimate D2E/DX2                !
 ! A57   A(26,29,32)           109.4712         estimate D2E/DX2                !
 ! A58   A(30,29,31)           109.4712         estimate D2E/DX2                !
 ! A59   A(30,29,32)           109.4712         estimate D2E/DX2                !
 ! A60   A(31,29,32)           109.4712         estimate D2E/DX2                !
 ! D1    D(2,1,5,6)            180.0            estimate D2E/DX2                !
 ! D2    D(2,1,5,7)            -60.0            estimate D2E/DX2                !
 ! D3    D(2,1,5,8)             60.0            estimate D2E/DX2                !
 ! D4    D(3,1,5,6)             60.0            estimate D2E/DX2                !
 ! D5    D(3,1,5,7)            180.0            estimate D2E/DX2                !
 ! D6    D(3,1,5,8)            -60.0            estimate D2E/DX2                !
 ! D7    D(4,1,5,6)            -60.0            estimate D2E/DX2                !
 ! D8    D(4,1,5,7)             60.0            estimate D2E/DX2                !
 ! D9    D(4,1,5,8)           -180.0            estimate D2E/DX2                !
 ! D10   D(1,5,8,9)             60.0            estimate D2E/DX2                !
 ! D11   D(1,5,8,10)           -60.0            estimate D2E/DX2                !
 ! D12   D(1,5,8,11)          -180.0            estimate D2E/DX2                !
 ! D13   D(6,5,8,9)            -60.0            estimate D2E/DX2                !
 ! D14   D(6,5,8,10)           180.0            estimate D2E/DX2                !
 ! D15   D(6,5,8,11)            60.0            estimate D2E/DX2                !
 ! D16   D(7,5,8,9)            180.0            estimate D2E/DX2                !
 ! D17   D(7,5,8,10)            60.0            estimate D2E/DX2                !
 ! D18   D(7,5,8,11)           -60.0            estimate D2E/DX2                !
 ! D19   D(5,8,11,12)           60.0            estimate D2E/DX2                !
 ! D20   D(5,8,11,13)          -60.0            estimate D2E/DX2                !
 ! D21   D(5,8,11,14)          180.0            estimate D2E/DX2                !
 ! D22   D(9,8,11,12)          180.0            estimate D2E/DX2                !
 ! D23   D(9,8,11,13)           60.0            estimate D2E/DX2                !
 ! D24   D(9,8,11,14)          -60.0            estimate D2E/DX2                !
 ! D25   D(10,8,11,12)         -60.0            estimate D2E/DX2                !
 ! D26   D(10,8,11,13)        -180.0            estimate D2E/DX2                !
 ! D27   D(10,8,11,14)          60.0            estimate D2E/DX2                !
 ! D28   D(8,11,14,15)          60.0            estimate D2E/DX2                !
 ! D29   D(8,11,14,16)         -60.0            estimate D2E/DX2                !
 ! D30   D(8,11,14,17)         180.0            estimate D2E/DX2                !
 ! D31   D(12,11,14,15)        180.0            estimate D2E/DX2                !
 ! D32   D(12,11,14,16)         60.0            estimate D2E/DX2                !
 ! D33   D(12,11,14,17)        -60.0            estimate D2E/DX2                !
 ! D34   D(13,11,14,15)        -60.0            estimate D2E/DX2                !
 ! D35   D(13,11,14,16)        180.0            estimate D2E/DX2                !
 ! D36   D(13,11,14,17)         60.0            estimate D2E/DX2                !
 ! D37   D(11,14,17,18)         60.0            estimate D2E/DX2                !
 ! D38   D(11,14,17,19)        -60.0            estimate D2E/DX2                !
 ! D39   D(11,14,17,20)        180.0            estimate D2E/DX2                !
 ! D40   D(15,14,17,18)        180.0            estimate D2E/DX2                !
 ! D41   D(15,14,17,19)         60.0            estimate D2E/DX2                !
 ! D42   D(15,14,17,20)        -60.0            estimate D2E/DX2                !
 ! D43   D(16,14,17,18)        -60.0            estimate D2E/DX2                !
 ! D44   D(16,14,17,19)        180.0            estimate D2E/DX2                !
 ! D45   D(16,14,17,20)         60.0            estimate D2E/DX2                !
 ! D46   D(14,17,20,21)         60.0            estimate D2E/DX2                !
 ! D47   D(14,17,20,22)        -60.0            estimate D2E/DX2                !
 ! D48   D(14,17,20,23)        180.0            estimate D2E/DX2                !
 ! D49   D(18,17,20,21)        180.0            estimate D2E/DX2                !
 ! D50   D(18,17,20,22)         60.0            estimate D2E/DX2                !
 ! D51   D(18,17,20,23)        -60.0            estimate D2E/DX2                !
 ! D52   D(19,17,20,21)        -60.0            estimate D2E/DX2                !
 ! D53   D(19,17,20,22)        180.0            estimate D2E/DX2                !
 ! D54   D(19,17,20,23)         60.0            estimate D2E/DX2                !
 ! D55   D(17,20,23,24)         60.0            estimate D2E/DX2                !
 ! D56   D(17,20,23,25)        -60.0            estimate D2E/DX2                !
 ! D57   D(17,20,23,26)        180.0            estimate D2E/DX2                !
 ! D58   D(21,20,23,24)        180.0            estimate D2E/DX2                !
 ! D59   D(21,20,23,25)         60.0            estimate D2E/DX2                !
 ! D60   D(21,20,23,26)        -60.0            estimate D2E/DX2                !
 ! D61   D(22,20,23,24)        -60.0            estimate D2E/DX2                !
 ! D62   D(22,20,23,25)        180.0            estimate D2E/DX2                !
 ! D63   D(22,20,23,26)         60.0            estimate D2E/DX2                !
 ! D64   D(20,23,26,27)         60.0            estimate D2E/DX2                !
 ! D65   D(20,23,26,28)        -60.0            estimate D2E/DX2                !
 ! D66   D(20,23,26,29)       -180.0            estimate D2E/DX2                !
 ! D67   D(24,23,26,27)       -180.0            estimate D2E/DX2                !
 ! D68   D(24,23,26,28)         60.0            estimate D2E/DX2                !
 ! D69   D(24,23,26,29)        -60.0            estimate D2E/DX2                !
 ! D70   D(25,23,26,27)        -60.0            estimate D2E/DX2                !
 ! D71   D(25,23,26,28)        180.0            estimate D2E/DX2                !
 ! D72   D(25,23,26,29)         60.0            estimate D2E/DX2                !
 ! D73   D(23,26,29,30)         60.0            estimate D2E/DX2                !
 ! D74   D(23,26,29,31)        180.0            estimate D2E/DX2                !
 ! D75   D(23,26,29,32)        -60.0            estimate D2E/DX2                !
 ! D76   D(27,26,29,30)        180.0            estimate D2E/DX2                !
 ! D77   D(27,26,29,31)        -60.0            estimate D2E/DX2                !
 ! D78   D(27,26,29,32)         60.0            estimate D2E/DX2                !
 ! D79   D(28,26,29,30)        -60.0            estimate D2E/DX2                !
 ! D80   D(28,26,29,31)         60.0            estimate D2E/DX2                !
 ! D81   D(28,26,29,32)        180.0            estimate D2E/DX2                !
 --------------------------------------------------------------------------------
 Trust Radius=3.00D-01 FncErr=1.00D-07 GrdErr=1.00D-06 EigMax=2.50D+02 EigMin=1.00D-04
 Number of steps in this run=    182 maximum allowed number of steps=    192.
 GradGradGradGradGradGradGradGradGradGradGradGradGradGradGradGradGradGrad

                          Input orientation:                          
 ---------------------------------------------------------------------
 Center     Atomic      Atomic             Coordinates (Angstroms)
 Number     Number       Type             X           Y           Z
 ---------------------------------------------------------------------
      1          6           0       -7.610063    0.314442    0.000013
      2          1           0       -7.253563   -0.694422    0.000130
      3          1           0       -7.253237    0.818712   -0.873650
      4          1           0       -8.680063    0.314619   -0.000081
      5          6           0       -7.096721    1.040428    1.257401
      6          1           0       -7.453221    2.049292    1.257284
      7          1           0       -7.453548    0.536158    2.131064
      8          6           0       -5.556721    1.040173    1.257537
      9          1           0       -5.199894    1.544443    0.383874
     10          1           0       -5.200221    0.031309    1.257654
     11          6           0       -5.043379    1.766159    2.514925
     12          1           0       -5.400205    1.261889    3.388588
     13          1           0       -5.399879    2.775023    2.514808
     14          6           0       -3.503379    1.765904    2.515060
     15          1           0       -3.146552    2.270174    1.641398
     16          1           0       -3.146878    0.757040    2.515178
     17          6           0       -2.990036    2.491890    3.772449
     18          1           0       -3.346863    1.987620    4.646111
     19          1           0       -3.346536    3.500754    3.772332
     20          6           0       -1.450036    2.491635    3.772584
     21          1           0       -1.093209    2.995905    2.898921
     22          1           0       -1.093536    1.482771    3.772701
     23          6           0       -0.936694    3.217621    5.029972
     24          1           0       -1.293521    2.713351    5.903635
     25          1           0       -1.293194    4.226485    5.029855
     26          6           0        0.603306    3.217366    5.030108
     27          1           0        0.960133    3.721636    4.156445
     28          1           0        0.959806    2.208502    5.030225
     29          6           0        1.116649    3.943352    6.287496
     30          1           0        0.759822    3.439082    7.161159
     31          1           0        2.186649    3.943175    6.287590
     32          1           0        0.760148    4.952216    6.287379
 ---------------------------------------------------------------------
                    Distance matrix (angstroms):
                    1          2          3          4          5
     1  C    0.000000
     2  H    1.070000   0.000000
     3  H    1.070000   1.747303   0.000000
     4  H    1.070000   1.747303   1.747303   0.000000
     5  C    1.540000   2.148263   2.148263   2.148263   0.000000
     6  H    2.148263   3.024610   2.468846   2.468846   1.070000
     7  H    2.148263   2.468846   3.024610   2.468846   1.070000
     8  C    2.514809   2.732978   2.732978   3.444314   1.540000
     9  H    2.732978   3.062243   2.514809   3.710993   2.148263
    10  H    2.732978   2.514809   3.062243   3.710993   2.148263
    11  C    3.875582   4.154945   4.154945   4.653783   2.514809
    12  H    4.154945   4.329403   4.668704   4.810184   2.732978
    13  H    4.154945   4.668704   4.329403   4.810184   2.732978
    14  C    5.029619   5.142175   5.142175   5.935506   3.875582
    15  H    5.142175   5.324484   5.029619   6.094128   4.154945
    16  H    5.142175   5.029619   5.324484   6.094128   4.154945
    17  C    6.349583   6.523851   6.523851   7.165815   5.029619
    18  H    6.523851   6.636324   6.862497   7.268361   5.142175
    19  H    6.523851   6.862497   6.636324   7.268361   5.142175
    20  C    7.544428   7.619928   7.619928   8.440717   6.349583
    21  H    7.619928   7.744125   7.544428   8.553003   6.523851
    22  H    7.619928   7.544428   7.744125   8.553003   6.523851
    23  C    8.846626   8.972527   8.972527   9.679289   7.544428
    24  H    8.972527   9.054634   9.221685   9.755450   7.619928
    25  H    8.972527   9.221685   9.054634   9.755450   7.619928
    26  C   10.059238  10.115986  10.115986  10.950329   8.846626
    27  H   10.115986  10.209865  10.059238  11.037113   8.972527
    28  H   10.115986  10.059238  10.209865  11.037113   8.972527
    29  C   11.351517  11.449907  11.449907  12.193314  10.059238
    30  H   11.449907  11.514362  11.646184  12.253859  10.115986
    31  H   12.193314  12.253859  12.253859  13.068537  10.950329
    32  H   11.449907  11.646184  11.514362  12.253859  10.115986
                    6          7          8          9         10
     6  H    0.000000
     7  H    1.747303   0.000000
     8  C    2.148263   2.148263   0.000000
     9  H    2.468846   3.024610   1.070000   0.000000
    10  H    3.024610   2.468846   1.070000   1.747303   0.000000
    11  C    2.732978   2.732978   1.540000   2.148263   2.148263
    12  H    3.062243   2.514809   2.148263   3.024610   2.468846
    13  H    2.514809   3.062243   2.148263   2.468846   3.024610
    14  C    4.154945   4.154945   2.514809   2.732978   2.732978
    15  H    4.329403   4.668704   2.732978   2.514809   3.062243
    16  H    4.668704   4.329403   2.732978   3.062243   2.514809
    17  C    5.142175   5.142175   3.875582   4.154945   4.154945
    18  H    5.324484   5.029619   4.154945   4.668704   4.329403
    19  H    5.029619   5.324484   4.154945   4.329403   4.668704
    20  C    6.523851   6.523851   5.029619   5.142175   5.142175
    21  H    6.636324   6.862497   5.142175   5.029619   5.324484
    22  H    6.862497   6.636324   5.142175   5.324484   5.029619
    23  C    7.619928   7.619928   6.349583   6.523851   6.523851
    24  H    7.744125   7.544428   6.523851   6.862497   6.636324
    25  H    7.544428   7.744125   6.523851   6.636324   6.862497
    26  C    8.972527   8.972527   7.544428   7.619928   7.619928
    27  H    9.054634   9.221685   7.619928   7.544428   7.744125
    28  H    9.221685   9.054634   7.619928   7.744125   7.544428
    29  C   10.115986  10.115986   8.846626   8.972527   8.972527
    30  H   10.209865  10.059238   8.972527   9.221685   9.054634
    31  H   11.037113  11.037113   9.679289   9.755450   9.755450
    32  H   10.059238  10.209865   8.972527   9.054634   9.221685
                   11         12         13         14         15
    11  C    0.000000
    12  H    1.070000   0.000000
    13  H    1.070000   1.747303   0.000000
    14  C    1.540000   2.148263   2.148263   0.000000
    15  H    2.148263   3.024610   2.468846   1.070000   0.000000
    16  H    2.148263   2.468846   3.024610   1.070000   1.747303
    17  C    2.514809   2.732978   2.732978   1.540000   2.148263
    18  H    2.732978   2.514809   3.062243   2.148263   3.024610
    19  H    2.732978   3.062243   2.514809   2.148263   2.468846
    20  C    3.875582   4.154945   4.154945   2.514809   2.732978
    21  H    4.154945   4.668704   4.329403   2.732978   2.514809
    22  H    4.154945   4.329403   4.668704   2.732978   3.062243
    23  C    5.029619   5.142175   5.142175   3.875582   4.154945
    24  H    5.142175   5.029619   5.324484   4.154945   4.668704
    25  H    5.142175   5.324484   5.029619   4.154945   4.329403
    26  C    6.349583   6.523851   6.523851   5.029619   5.142175
    27  H    6.523851   6.862497   6.636324   5.142175   5.029619
    28  H    6.523851   6.636324   6.862497   5.142175   5.324484
    29  C    7.544428   7.619928   7.619928   6.349583   6.523851
    30  H    7.619928   7.544428   7.744125   6.523851   6.862497
    31  H    8.440717   8.553003   8.553003   7.165815   7.268361
    32  H    7.619928   7.744125   7.544428   6.523851   6.636324
                   16         17         18         19         20
    16  H    0.000000
    17  C    2.148263   0.000000
    18  H    2.468846   1.070000   0.000000
    19  H    3.024610   1.070000   1.747303   0.000000
    20  C    2.732978   1.540000   2.148263   2.148263   0.000000
    21  H    3.062243   2.148263   3.024610   2.468846   1.070000
    22  H    2.514809   2.148263   2.468846   3.024610   1.070000
    23  C    4.154945   2.514809   2.732978   2.732978   1.540000
    24  H    4.329403   2.732978   2.514809   3.062243   2.148263
    25  H    4.668704   2.732978   3.062243   2.514809   2.148263
    26  C    5.142175   3.875582   4.154945   4.154945   2.514809
    27  H    5.324484   4.154945   4.668704   4.329403   2.732978
    28  H    5.029619   4.154945   4.329403   4.668704   2.732978
    29  C    6.523851   5.029619   5.142175   5.142175   3.875582
    30  H    6.636324   5.142175   5.029619   5.324484   4.154945
    31  H    7.268361   5.935506   6.094128   6.094128   4.653783
    32  H    6.862497   5.142175   5.324484   5.029619   4.154945
                   21         22         23         24         25
    21  H    0.000000
    22  H    1.747303   0.000000
    23  C    2.148263   2.148263   0.000000
    24  H    3.024610   2.468846   1.070000   0.000000
    25  H    2.468846   3.024610   1.070000   1.747303   0.000000
    26  C    2.732978   2.732978   1.540000   2.148263   2.148263
    27  H    2.514809   3.062243   2.148263   3.024610   2.468846
    28  H    3.062243   2.514809   2.148263   2.468846   3.024610
    29  C    4.154945   4.154945   2.514809   2.732978   2.732978
    30  H    4.668704   4.329403   2.732978   2.514809   3.062243
    31  H    4.810184   4.810184   3.444314   3.710993   3.710993
    32  H    4.329403   4.668704   2.732978   3.062243   2.514809
                   26         27         28         29         30
    26  C    0.000000
    27  H    1.070000   0.000000
    28  H    1.070000   1.747303   0.000000
    29  C    1.540000   2.148263   2.148263   0.000000
    30  H    2.148263   3.024610   2.468846   1.070000   0.000000
    31  H    2.148263   2.468846   2.468846   1.070000   1.747303
    32  H    2.148263   2.468846   3.024610   1.070000   1.747303
                   31         32
    31  H    0.000000
    32  H    1.747303   0.000000
 Stoichiometry    C10H22
 Framework group  C2H[SGH(C10H2),X(H20)]
 Deg. of freedom    26
 Full point group                 C2H     NOp   4
 Largest Abelian subgroup         C2H     NOp   4
 Largest concise Abelian subgroup C2H     NOp   4
                         Standard orientation:                         
 ---------------------------------------------------------------------
 Center     Atomic      Atomic             Coordinates (Angstroms)
 Number     Number       Type             X           Y           Z
 ---------------------------------------------------------------------
      1          6           0       -0.444560    5.658321    0.000000
      2          1           0       -1.062325    5.658321    0.873651
      3          1           0       -1.062325    5.658321   -0.873651
      4          1           0        0.173205    6.531973    0.000000
      5          6           0        0.444560    4.400917    0.000000
      6          1           0        1.062324    4.400917   -0.873651
      7          1           0        1.062324    4.400917    0.873651
      8          6           0       -0.444560    3.143512    0.000000
      9          1           0       -1.062324    3.143512   -0.873651
     10          1           0       -1.062324    3.143512    0.873651
     11          6           0        0.444560    1.886107    0.000000
     12          1           0        1.062324    1.886107    0.873651
     13          1           0        1.062324    1.886107   -0.873651
     14          6           0       -0.444560    0.628702    0.000000
     15          1           0       -1.062324    0.628702   -0.873651
     16          1           0       -1.062324    0.628702    0.873651
     17          6           0        0.444560   -0.628702    0.000000
     18          1           0        1.062324   -0.628702    0.873651
     19          1           0        1.062324   -0.628702   -0.873651
     20          6           0       -0.444560   -1.886107    0.000000
     21          1           0       -1.062324   -1.886107   -0.873651
     22          1           0       -1.062324   -1.886107    0.873651
     23          6           0        0.444560   -3.143512    0.000000
     24          1           0        1.062324   -3.143512    0.873651
     25          1           0        1.062324   -3.143512   -0.873651
     26          6           0       -0.444560   -4.400917    0.000000
     27          1           0       -1.062324   -4.400917   -0.873651
     28          1           0       -1.062324   -4.400917    0.873651
     29          6           0        0.444560   -5.658321    0.000000
     30          1           0        1.062325   -5.658321    0.873651
     31          1           0       -0.173205   -6.531973    0.000000
     32          1           0        1.062325   -5.658321   -0.873651
 ---------------------------------------------------------------------
 Rotational constants (GHZ):           8.3069232           0.2617690           0.2577546
 Standard basis: 6-31G (6D, 7F)
 There are    47 symmetry adapted cartesian basis functions of AG  symmetry.
 There are    20 symmetry adapted cartesian basis functions of BG  symmetry.
 There are    20 symmetry adapted cartesian basis functions of AU  symmetry.
 There are    47 symmetry adapted cartesian basis functions of BU  symmetry.
 There are    47 symmetry adapted basis functions of AG  symmetry.
 There are    20 symmetry adapted basis functions of BG  symmetry.
 There are    20 symmetry adapted basis functions of AU  symmetry.
 There are    47 symmetry adapted basis functions of BU  symmetry.
   134 basis functions,   308 primitive gaussians,   134 cartesian basis functions
    41 alpha electrons       41 beta electrons
       nuclear repulsion energy       523.3541209562 Hartrees.
 NAtoms=   32 NActive=   32 NUniq=   11 SFac= 4.00D+00 NAtFMM=   60 NAOKFM=F Big=F
 Integral buffers will be    131072 words long.
 Raffenetti 2 integral format.
 Two-electron integral symmetry is turned on.
 One-electron integrals computed using PRISM.
 NBasis=   134 RedAO= T EigKep=  3.20D-03  NBF=    47    20    20    47
 NBsUse=   134 1.00D-06 EigRej= -1.00D+00 NBFU=    47    20    20    47
 ExpMin= 1.61D-01 ExpMax= 3.05D+03 ExpMxC= 4.57D+02 IAcc=3 IRadAn=         5 AccDes= 0.00D+00
 Harris functional with IExCor=  402 and IRadAn=       5 diagonalized for initial guess.
 HarFok:  IExCor=  402 AccDes= 0.00D+00 IRadAn=         5 IDoV= 1 UseB2=F ITyADJ=14
 ICtDFT=  3500011 ScaDFX=  1.000000  1.000000  1.000000  1.000000
 FoFCou: FMM=F IPFlag=           0 FMFlag=      100000 FMFlg1=           0
         NFxFlg=           0 DoJE=T BraDBF=F KetDBF=T FulRan=T
         wScrn=  0.000000 ICntrl=       500 IOpCl=  0 I1Cent=   200000004 NGrid=           0
         NMat0=    1 NMatS0=      1 NMatT0=    0 NMatD0=    1 NMtDS0=    0 NMtDT0=    0
 Petite list used in FoFCou.
 Initial guess orbital symmetries:
       Occupied  (BU) (AG) (AG) (BU) (BU) (AG) (BU) (AG) (BU) (AG)
                 (AG) (BU) (AG) (BU) (AG) (BU) (AG) (BU) (BU) (AG)
                 (AU) (BG) (AU) (AG) (BU) (BU) (BG) (AG) (AU) (AG)
                 (BU) (BG) (AG) (BU) (AU) (BU) (AG) (BG) (AU) (BG)
                 (AG)
       Virtual   (AG) (BU) (AG) (BU) (AU) (BU) (BG) (AG) (AG) (BU)
                 (BU) (AU) (AG) (BU) (AG) (BU) (AG) (BG) (BU) (AU)
                 (BG) (BG) (BU) (AU) (AG) (BG) (AU) (AG) (BU) (BU)
                 (AG) (AG) (BU) (BU) (AG) (AG) (AG) (AU) (BG) (BU)
                 (BG) (AU) (BU) (AU) (BU) (AG) (AG) (BG) (BU) (BU)
                 (AG) (AU) (AG) (BU) (BG) (BG) (AU) (BU) (AG) (AU)
                 (AG) (BG) (AU) (BU) (BU) (AG) (AG) (BG) (BU) (AU)
                 (AG) (BU) (AG) (BU) (BU) (AG) (BU) (BG) (AG) (AU)
                 (BG) (AG) (BU) (AU) (AG) (BU) (AG) (BU) (AG) (BG)
                 (BU) (AG) (BU)
 The electronic state of the initial guess is 1-AG.
 Keep R1 ints in memory in symmetry-blocked form, NReq=51456365.
 Requested convergence on RMS density matrix=1.00D-08 within 128 cycles.
 Requested convergence on MAX density matrix=1.00D-06.
 Requested convergence on             energy=1.00D-06.
 No special actions if energy rises.
 Integral accuracy reduced to 1.0D-05 until final iterations.
 Initial convergence to 1.0D-05 achieved.  Increase integral accuracy.
 SCF Done:  E(RB3LYP) =  -394.225984115     A.U. after   11 cycles
            NFock= 11  Conv=0.67D-08     -V/T= 2.0036

 **********************************************************************

            Population analysis using the SCF Density.

 **********************************************************************

 Orbital symmetries:
       Occupied  (BU) (AG) (BU) (AG) (AG) (BU) (AG) (BU) (BU) (AG)
                 (AG) (BU) (AG) (BU) (AG) (BU) (AG) (BU) (AG) (BU)
                 (AU) (BG) (AU) (AG) (BG) (BU) (BU) (AU) (AG) (AG)
                 (BG) (BU) (AU) (AG) (BG) (BG) (AU) (BU) (AG) (BU)
                 (AG)
       Virtual   (AG) (BU) (AG) (AU) (BU) (BU) (BG) (AG) (AG) (AU)
                 (BU) (AG) (BU) (BG) (AU) (BG) (BU) (BG) (AU) (AG)
                 (BU) (AG) (BG) (AU) (BU) (AG) (AG) (BU) (BU) (BU)
                 (AG) (AG) (BU) (BU) (AG) (AU) (BG) (BG) (AG) (AU)
                 (AG) (BU) (AU) (BU) (BG) (AG) (BU) (AG) (BU) (AG)
                 (AU) (BU) (BU) (AG) (BG) (BG) (AG) (AU) (BU) (AU)
                 (AG) (BG) (AU) (BU) (BU) (AG) (BG) (AG) (BU) (AU)
                 (AG) (BU) (BU) (BU) (AG) (AG) (BG) (BU) (AG) (AU)
                 (BG) (AG) (BU) (AU) (AG) (BU) (AG) (BU) (AG) (BG)
                 (BU) (AG) (BU)
 The electronic state is 1-AG.
 Alpha  occ. eigenvalues --  -10.16098 -10.16098 -10.15842 -10.15842 -10.15796
 Alpha  occ. eigenvalues --  -10.15794 -10.15783 -10.15773 -10.15258 -10.15258
 Alpha  occ. eigenvalues --   -0.81270  -0.79644  -0.76963  -0.73365  -0.69022
 Alpha  occ. eigenvalues --   -0.64263  -0.59918  -0.58371  -0.57559  -0.57484
 Alpha  occ. eigenvalues --   -0.49190  -0.47694  -0.45326  -0.43110  -0.42362
 Alpha  occ. eigenvalues --   -0.41960  -0.41184  -0.39183  -0.38420  -0.37220
 Alpha  occ. eigenvalues --   -0.36269  -0.35601  -0.34118  -0.33557  -0.32997
 Alpha  occ. eigenvalues --   -0.32742  -0.32676  -0.32507  -0.32111  -0.31520
 Alpha  occ. eigenvalues --   -0.26727
 Alpha virt. eigenvalues --    0.08932   0.09813   0.10943   0.12074   0.12725
 Alpha virt. eigenvalues --    0.13284   0.14126   0.14994   0.16252   0.17261
 Alpha virt. eigenvalues --    0.17710   0.18546   0.18693   0.19784   0.20222
 Alpha virt. eigenvalues --    0.20648   0.20912   0.21353   0.21493   0.22155
 Alpha virt. eigenvalues --    0.22186   0.23021   0.23582   0.23819   0.23949
 Alpha virt. eigenvalues --    0.24775   0.26537   0.26702   0.28186   0.33068
 Alpha virt. eigenvalues --    0.33534   0.48486   0.53246   0.54578   0.54714
 Alpha virt. eigenvalues --    0.57371   0.57401   0.59308   0.59443   0.59845
 Alpha virt. eigenvalues --    0.60101   0.60543   0.61272   0.65340   0.66925
 Alpha virt. eigenvalues --    0.67251   0.67275   0.69951   0.71794   0.73421
 Alpha virt. eigenvalues --    0.74895   0.75029   0.78607   0.79730   0.82069
 Alpha virt. eigenvalues --    0.84901   0.85068   0.85260   0.86855   0.90046
 Alpha virt. eigenvalues --    0.91575   0.91961   0.95121   0.95331   0.96786
 Alpha virt. eigenvalues --    0.97386   0.98924   0.98936   1.00742   1.02161
 Alpha virt. eigenvalues --    1.02633   1.02646   1.03297   1.03622   1.03671
 Alpha virt. eigenvalues --    1.04570   1.04953   1.05060   1.05692   1.07470
 Alpha virt. eigenvalues --    1.14579   1.18301   1.25692   1.32579   1.35249
 Alpha virt. eigenvalues --    1.41779   1.46589   1.49767   1.51901   1.52512
 Alpha virt. eigenvalues --    1.59714   1.80280   2.04171
          Condensed to atoms (all electrons):
               1          2          3          4          5          6
     1  C    5.081519   0.382029   0.382029   0.369200   0.326761  -0.041911
     2  H    0.382029   0.592971  -0.034036  -0.032640  -0.039247   0.005728
     3  H    0.382029  -0.034036   0.592971  -0.032640  -0.039247  -0.005145
     4  H    0.369200  -0.032640  -0.032640   0.602105  -0.032720  -0.002704
     5  C    0.326761  -0.039247  -0.039247  -0.032720   5.057475   0.383636
     6  H   -0.041911   0.005728  -0.005145  -0.002704   0.383636   0.619800
     7  H   -0.041911  -0.005145   0.005728  -0.002704   0.383636  -0.040465
     8  C   -0.053297  -0.005315  -0.005315   0.005311   0.335328  -0.043029
     9  H   -0.003063  -0.000617   0.005531   0.000011  -0.043910  -0.006116
    10  H   -0.003063   0.005531  -0.000617   0.000011  -0.043910   0.006193
    11  C    0.005439   0.000084   0.000084  -0.000233  -0.045531  -0.003569
    12  H    0.000061   0.000002   0.000008   0.000003  -0.003539  -0.000621
    13  H    0.000061   0.000008   0.000002   0.000003  -0.003539   0.005301
    14  C   -0.000231   0.000001   0.000001   0.000003   0.005245   0.000064
    15  H    0.000002   0.000001  -0.000003   0.000000   0.000056   0.000005
    16  H    0.000002  -0.000003   0.000001   0.000000   0.000056   0.000005
    17  C    0.000002   0.000000   0.000000   0.000000  -0.000217   0.000002
    18  H    0.000000   0.000000   0.000000   0.000000   0.000002   0.000001
    19  H    0.000000   0.000000   0.000000   0.000000   0.000002  -0.000003
    20  C    0.000000   0.000000   0.000000   0.000000   0.000002   0.000000
    21  H    0.000000   0.000000   0.000000   0.000000   0.000000   0.000000
    22  H    0.000000   0.000000   0.000000   0.000000   0.000000   0.000000
    23  C    0.000000   0.000000   0.000000   0.000000   0.000000   0.000000
    24  H    0.000000   0.000000   0.000000   0.000000   0.000000   0.000000
    25  H    0.000000   0.000000   0.000000   0.000000   0.000000   0.000000
    26  C    0.000000   0.000000   0.000000   0.000000   0.000000   0.000000
    27  H    0.000000   0.000000   0.000000   0.000000   0.000000   0.000000
    28  H    0.000000   0.000000   0.000000   0.000000   0.000000   0.000000
    29  C    0.000000   0.000000   0.000000   0.000000   0.000000   0.000000
    30  H    0.000000   0.000000   0.000000   0.000000   0.000000   0.000000
    31  H    0.000000   0.000000   0.000000   0.000000   0.000000   0.000000
    32  H    0.000000   0.000000   0.000000   0.000000   0.000000   0.000000
               7          8          9         10         11         12
     1  C   -0.041911  -0.053297  -0.003063  -0.003063   0.005439   0.000061
     2  H   -0.005145  -0.005315  -0.000617   0.005531   0.000084   0.000002
     3  H    0.005728  -0.005315   0.005531  -0.000617   0.000084   0.000008
     4  H   -0.002704   0.005311   0.000011   0.000011  -0.000233   0.000003
     5  C    0.383636   0.335328  -0.043910  -0.043910  -0.045531  -0.003539
     6  H   -0.040465  -0.043029  -0.006116   0.006193  -0.003569  -0.000621
     7  H    0.619800  -0.043029   0.006193  -0.006116  -0.003569   0.005301
     8  C   -0.043029   5.089473   0.381345   0.381345   0.320967  -0.042976
     9  H    0.006193   0.381345   0.624179  -0.041543  -0.042749   0.006165
    10  H   -0.006116   0.381345  -0.041543   0.624179  -0.042749  -0.006073
    11  C   -0.003569   0.320967  -0.042749  -0.042749   5.103069   0.381289
    12  H    0.005301  -0.042976   0.006165  -0.006073   0.381289   0.623825
    13  H   -0.000621  -0.042976  -0.006073   0.006165   0.381289  -0.041368
    14  C    0.000064  -0.045231  -0.003444  -0.003444   0.316531  -0.042935
    15  H    0.000005  -0.003471   0.005213  -0.000607  -0.043070   0.006156
    16  H    0.000005  -0.003471  -0.000607   0.005213  -0.043070  -0.006067
    17  C    0.000002   0.005211   0.000068   0.000068  -0.044871  -0.003429
    18  H   -0.000003   0.000062   0.000004   0.000006  -0.003423   0.005212
    19  H    0.000001   0.000062   0.000006   0.000004  -0.003423  -0.000604
    20  C    0.000000  -0.000219   0.000002   0.000002   0.005177   0.000064
    21  H    0.000000   0.000002  -0.000003   0.000001   0.000064   0.000004
    22  H    0.000000   0.000002   0.000001  -0.000003   0.000064   0.000006
    23  C    0.000000   0.000002   0.000000   0.000000  -0.000219   0.000002
    24  H    0.000000   0.000000   0.000000   0.000000   0.000002  -0.000003
    25  H    0.000000   0.000000   0.000000   0.000000   0.000002   0.000001
    26  C    0.000000   0.000000   0.000000   0.000000   0.000002   0.000000
    27  H    0.000000   0.000000   0.000000   0.000000   0.000000   0.000000
    28  H    0.000000   0.000000   0.000000   0.000000   0.000000   0.000000
    29  C    0.000000   0.000000   0.000000   0.000000   0.000000   0.000000
    30  H    0.000000   0.000000   0.000000   0.000000   0.000000   0.000000
    31  H    0.000000   0.000000   0.000000   0.000000   0.000000   0.000000
    32  H    0.000000   0.000000   0.000000   0.000000   0.000000   0.000000
              13         14         15         16         17         18
     1  C    0.000061  -0.000231   0.000002   0.000002   0.000002   0.000000
     2  H    0.000008   0.000001   0.000001  -0.000003   0.000000   0.000000
     3  H    0.000002   0.000001  -0.000003   0.000001   0.000000   0.000000
     4  H    0.000003   0.000003   0.000000   0.000000   0.000000   0.000000
     5  C   -0.003539   0.005245   0.000056   0.000056  -0.000217   0.000002
     6  H    0.005301   0.000064   0.000005   0.000005   0.000002   0.000001
     7  H   -0.000621   0.000064   0.000005   0.000005   0.000002  -0.000003
     8  C   -0.042976  -0.045231  -0.003471  -0.003471   0.005211   0.000062
     9  H   -0.006073  -0.003444   0.005213  -0.000607   0.000068   0.000004
    10  H    0.006165  -0.003444  -0.000607   0.005213   0.000068   0.000006
    11  C    0.381289   0.316531  -0.043070  -0.043070  -0.044871  -0.003423
    12  H   -0.041368  -0.042935   0.006156  -0.006067  -0.003429   0.005212
    13  H    0.623825  -0.042935  -0.006067   0.006156  -0.003429  -0.000604
    14  C   -0.042935   5.108698   0.381355   0.381355   0.315638  -0.043012
    15  H   -0.006067   0.381355   0.624178  -0.041413  -0.043012   0.006158
    16  H    0.006156   0.381355  -0.041413   0.624178  -0.043012  -0.006067
    17  C   -0.003429   0.315638  -0.043012  -0.043012   5.108698   0.381355
    18  H   -0.000604  -0.043012   0.006158  -0.006067   0.381355   0.624178
    19  H    0.005212  -0.043012  -0.006067   0.006158   0.381355  -0.041413
    20  C    0.000064  -0.044871  -0.003423  -0.003423   0.316531  -0.043070
    21  H    0.000006  -0.003429   0.005212  -0.000604  -0.042935   0.006156
    22  H    0.000004  -0.003429  -0.000604   0.005212  -0.042935  -0.006067
    23  C    0.000002   0.005211   0.000062   0.000062  -0.045231  -0.003471
    24  H    0.000001   0.000068   0.000004   0.000006  -0.003444   0.005213
    25  H   -0.000003   0.000068   0.000006   0.000004  -0.003444  -0.000607
    26  C    0.000000  -0.000217   0.000002   0.000002   0.005245   0.000056
    27  H    0.000000   0.000002  -0.000003   0.000001   0.000064   0.000005
    28  H    0.000000   0.000002   0.000001  -0.000003   0.000064   0.000005
    29  C    0.000000   0.000002   0.000000   0.000000  -0.000231   0.000002
    30  H    0.000000   0.000000   0.000000   0.000000   0.000001  -0.000003
    31  H    0.000000   0.000000   0.000000   0.000000   0.000003   0.000000
    32  H    0.000000   0.000000   0.000000   0.000000   0.000001   0.000001
              19         20         21         22         23         24
     1  C    0.000000   0.000000   0.000000   0.000000   0.000000   0.000000
     2  H    0.000000   0.000000   0.000000   0.000000   0.000000   0.000000
     3  H    0.000000   0.000000   0.000000   0.000000   0.000000   0.000000
     4  H    0.000000   0.000000   0.000000   0.000000   0.000000   0.000000
     5  C    0.000002   0.000002   0.000000   0.000000   0.000000   0.000000
     6  H   -0.000003   0.000000   0.000000   0.000000   0.000000   0.000000
     7  H    0.000001   0.000000   0.000000   0.000000   0.000000   0.000000
     8  C    0.000062  -0.000219   0.000002   0.000002   0.000002   0.000000
     9  H    0.000006   0.000002  -0.000003   0.000001   0.000000   0.000000
    10  H    0.000004   0.000002   0.000001  -0.000003   0.000000   0.000000
    11  C   -0.003423   0.005177   0.000064   0.000064  -0.000219   0.000002
    12  H   -0.000604   0.000064   0.000004   0.000006   0.000002  -0.000003
    13  H    0.005212   0.000064   0.000006   0.000004   0.000002   0.000001
    14  C   -0.043012  -0.044871  -0.003429  -0.003429   0.005211   0.000068
    15  H   -0.006067  -0.003423   0.005212  -0.000604   0.000062   0.000004
    16  H    0.006158  -0.003423  -0.000604   0.005212   0.000062   0.000006
    17  C    0.381355   0.316531  -0.042935  -0.042935  -0.045231  -0.003444
    18  H   -0.041413  -0.043070   0.006156  -0.006067  -0.003471   0.005213
    19  H    0.624178  -0.043070  -0.006067   0.006156  -0.003471  -0.000607
    20  C   -0.043070   5.103069   0.381289   0.381289   0.320967  -0.042749
    21  H   -0.006067   0.381289   0.623825  -0.041368  -0.042976   0.006165
    22  H    0.006156   0.381289  -0.041368   0.623825  -0.042976  -0.006073
    23  C   -0.003471   0.320967  -0.042976  -0.042976   5.089473   0.381345
    24  H   -0.000607  -0.042749   0.006165  -0.006073   0.381345   0.624179
    25  H    0.005213  -0.042749  -0.006073   0.006165   0.381345  -0.041543
    26  C    0.000056  -0.045531  -0.003539  -0.003539   0.335328  -0.043910
    27  H    0.000005  -0.003569   0.005301  -0.000621  -0.043029   0.006193
    28  H    0.000005  -0.003569  -0.000621   0.005301  -0.043029  -0.006116
    29  C    0.000002   0.005439   0.000061   0.000061  -0.053297  -0.003063
    30  H    0.000001   0.000084   0.000008   0.000002  -0.005315   0.005531
    31  H    0.000000  -0.000233   0.000003   0.000003   0.005311   0.000011
    32  H   -0.000003   0.000084   0.000002   0.000008  -0.005315  -0.000617
              25         26         27         28         29         30
     1  C    0.000000   0.000000   0.000000   0.000000   0.000000   0.000000
     2  H    0.000000   0.000000   0.000000   0.000000   0.000000   0.000000
     3  H    0.000000   0.000000   0.000000   0.000000   0.000000   0.000000
     4  H    0.000000   0.000000   0.000000   0.000000   0.000000   0.000000
     5  C    0.000000   0.000000   0.000000   0.000000   0.000000   0.000000
     6  H    0.000000   0.000000   0.000000   0.000000   0.000000   0.000000
     7  H    0.000000   0.000000   0.000000   0.000000   0.000000   0.000000
     8  C    0.000000   0.000000   0.000000   0.000000   0.000000   0.000000
     9  H    0.000000   0.000000   0.000000   0.000000   0.000000   0.000000
    10  H    0.000000   0.000000   0.000000   0.000000   0.000000   0.000000
    11  C    0.000002   0.000002   0.000000   0.000000   0.000000   0.000000
    12  H    0.000001   0.000000   0.000000   0.000000   0.000000   0.000000
    13  H   -0.000003   0.000000   0.000000   0.000000   0.000000   0.000000
    14  C    0.000068  -0.000217   0.000002   0.000002   0.000002   0.000000
    15  H    0.000006   0.000002  -0.000003   0.000001   0.000000   0.000000
    16  H    0.000004   0.000002   0.000001  -0.000003   0.000000   0.000000
    17  C   -0.003444   0.005245   0.000064   0.000064  -0.000231   0.000001
    18  H   -0.000607   0.000056   0.000005   0.000005   0.000002  -0.000003
    19  H    0.005213   0.000056   0.000005   0.000005   0.000002   0.000001
    20  C   -0.042749  -0.045531  -0.003569  -0.003569   0.005439   0.000084
    21  H   -0.006073  -0.003539   0.005301  -0.000621   0.000061   0.000008
    22  H    0.006165  -0.003539  -0.000621   0.005301   0.000061   0.000002
    23  C    0.381345   0.335328  -0.043029  -0.043029  -0.053297  -0.005315
    24  H   -0.041543  -0.043910   0.006193  -0.006116  -0.003063   0.005531
    25  H    0.624179  -0.043910  -0.006116   0.006193  -0.003063  -0.000617
    26  C   -0.043910   5.057475   0.383636   0.383636   0.326761  -0.039247
    27  H   -0.006116   0.383636   0.619800  -0.040465  -0.041911   0.005728
    28  H    0.006193   0.383636  -0.040465   0.619800  -0.041911  -0.005145
    29  C   -0.003063   0.326761  -0.041911  -0.041911   5.081519   0.382029
    30  H   -0.000617  -0.039247   0.005728  -0.005145   0.382029   0.592971
    31  H    0.000011  -0.032720  -0.002704  -0.002704   0.369200  -0.032640
    32  H    0.005531  -0.039247  -0.005145   0.005728   0.382029  -0.034036
              31         32
     1  C    0.000000   0.000000
     2  H    0.000000   0.000000
     3  H    0.000000   0.000000
     4  H    0.000000   0.000000
     5  C    0.000000   0.000000
     6  H    0.000000   0.000000
     7  H    0.000000   0.000000
     8  C    0.000000   0.000000
     9  H    0.000000   0.000000
    10  H    0.000000   0.000000
    11  C    0.000000   0.000000
    12  H    0.000000   0.000000
    13  H    0.000000   0.000000
    14  C    0.000000   0.000000
    15  H    0.000000   0.000000
    16  H    0.000000   0.000000
    17  C    0.000003   0.000001
    18  H    0.000000   0.000001
    19  H    0.000000  -0.000003
    20  C   -0.000233   0.000084
    21  H    0.000003   0.000002
    22  H    0.000003   0.000008
    23  C    0.005311  -0.005315
    24  H    0.000011  -0.000617
    25  H    0.000011   0.005531
    26  C   -0.032720  -0.039247
    27  H   -0.002704  -0.005145
    28  H   -0.002704   0.005728
    29  C    0.369200   0.382029
    30  H   -0.032640  -0.034036
    31  H    0.602105  -0.032640
    32  H   -0.032640   0.592971
 Mulliken charges:
               1
     1  C   -0.403628
     2  H    0.130650
     3  H    0.130650
     4  H    0.126996
     5  C   -0.240337
     6  H    0.122829
     7  H    0.122829
     8  C   -0.230782
     9  H    0.119407
    10  H    0.119407
    11  C   -0.237583
    12  H    0.119518
    13  H    0.119518
    14  C   -0.238117
    15  H    0.119322
    16  H    0.119322
    17  C   -0.238117
    18  H    0.119322
    19  H    0.119322
    20  C   -0.237583
    21  H    0.119518
    22  H    0.119518
    23  C   -0.230782
    24  H    0.119407
    25  H    0.119407
    26  C   -0.240337
    27  H    0.122829
    28  H    0.122829
    29  C   -0.403628
    30  H    0.130650
    31  H    0.126996
    32  H    0.130650
 Sum of Mulliken charges =   0.00000
 Mulliken charges with hydrogens summed into heavy atoms:
               1
     1  C   -0.015333
     5  C    0.005322
     8  C    0.008031
    11  C    0.001453
    14  C    0.000528
    17  C    0.000528
    20  C    0.001453
    23  C    0.008031
    26  C    0.005322
    29  C   -0.015333
 Electronic spatial extent (au):  <R**2>=           4361.8703
 Charge=              0.0000 electrons
 Dipole moment (field-independent basis, Debye):
    X=              0.0000    Y=              0.0000    Z=              0.0000  Tot=              0.0000
 Quadrupole moment (field-independent basis, Debye-Ang):
   XX=            -68.4675   YY=            -71.2606   ZZ=            -66.1217
   XY=              0.6917   XZ=              0.0000   YZ=              0.0000
 Traceless Quadrupole moment (field-independent basis, Debye-Ang):
   XX=              0.1491   YY=             -2.6440   ZZ=              2.4949
   XY=              0.6917   XZ=              0.0000   YZ=              0.0000
 Octapole moment (field-independent basis, Debye-Ang**2):
  XXX=              0.0000  YYY=              0.0000  ZZZ=              0.0000  XYY=              0.0000
  XXY=              0.0000  XXZ=              0.0000  XZZ=              0.0000  YZZ=              0.0000
  YYZ=              0.0000  XYZ=              0.0000
 Hexadecapole moment (field-independent basis, Debye-Ang**3):
 XXXX=           -242.0119 YYYY=          -5879.1094 ZZZZ=           -134.7892 XXXY=             70.4376
 XXXZ=              0.0000 YYYX=            122.4639 YYYZ=              0.0000 ZZZX=              0.0000
 ZZZY=              0.0000 XXYY=           -992.5230 XXZZ=            -57.8454 YYZZ=           -951.6672
 XXYZ=              0.0000 YYXZ=              0.0000 ZZXY=             20.3790
 N-N= 5.233541209562D+02 E-N=-1.959012280476D+03  KE= 3.928231586562D+02
 Symmetry AG   KE= 1.879147467206D+02
 Symmetry BG   KE= 1.011275888701D+01
 Symmetry AU   KE= 9.918274175865D+00
 Symmetry BU   KE= 1.848773788728D+02
 Calling FoFJK, ICntrl=      2127 FMM=F ISym2X=1 I1Cent= 0 IOpClX= 0 NMat=1 NMatS=1 NMatT=0.
 ***** Axes restored to original set *****
 -------------------------------------------------------------------
 Center     Atomic                   Forces (Hartrees/Bohr)
 Number     Number              X              Y              Z
 -------------------------------------------------------------------
      1        6          -0.000049146    0.012016460    0.020809018
      2        1           0.004436604   -0.017584852   -0.002963462
      3        1           0.004441742    0.006221716   -0.016710887
      4        1          -0.018436831   -0.002706208   -0.004693260
      5        6           0.017452694   -0.016766257   -0.029027788
      6        1          -0.007387445    0.017696952    0.003119971
      7        1          -0.007392590   -0.006141240    0.016885659
      8        6          -0.025790674    0.017279077    0.029912729
      9        1           0.007754708    0.006740188   -0.016781588
     10        1           0.007749388   -0.017906318   -0.002549128
     11        6           0.024768680   -0.017740069   -0.030711415
     12        1          -0.007796520   -0.006736861    0.016634668
     13        1          -0.007791229    0.017777420    0.002478564
     14        6          -0.025135085    0.017735310    0.030703037
     15        1           0.007820154    0.006748593   -0.016640691
     16        1           0.007814858   -0.017788509   -0.002471409
     17        6           0.025135085   -0.017735310   -0.030703037
     18        1          -0.007820154   -0.006748593    0.016640691
     19        1          -0.007814858    0.017788509    0.002471409
     20        6          -0.024768680    0.017740069    0.030711415
     21        1           0.007796520    0.006736861   -0.016634668
     22        1           0.007791229   -0.017777420   -0.002478564
     23        6           0.025790674   -0.017279077   -0.029912729
     24        1          -0.007754708   -0.006740188    0.016781588
     25        1          -0.007749388    0.017906318    0.002549128
     26        6          -0.017452694    0.016766257    0.029027788
     27        1           0.007392590    0.006141240   -0.016885659
     28        1           0.007387445   -0.017696952   -0.003119971
     29        6           0.000049146   -0.012016460   -0.020809018
     30        1          -0.004441742   -0.006221716    0.016710887
     31        1           0.018436831    0.002706208    0.004693260
     32        1          -0.004436604    0.017584852    0.002963462
 -------------------------------------------------------------------
 Cartesian Forces:  Max     0.030711415 RMS     0.015633565

 GradGradGradGradGradGradGradGradGradGradGradGradGradGradGradGradGradGrad
 Berny optimization.
 FormGI is forming the generalized inverse of G from B-inverse, IUseBI=4.
 Internal  Forces:  Max     0.019464879 RMS     0.008074285
 Search for a local minimum.
 Step number   1 out of a maximum of  182
 All quantities printed in internal units (Hartrees-Bohrs-Radians)
 Mixed Optimization -- RFO/linear search
 Second derivative matrix not updated -- first step.
 ITU=  0
     Eigenvalues ---    0.00237   0.00237   0.00237   0.00237   0.00237
     Eigenvalues ---    0.00237   0.00237   0.00237   0.00237   0.03840
     Eigenvalues ---    0.03840   0.03840   0.03840   0.03840   0.03840
     Eigenvalues ---    0.03840   0.03840   0.04896   0.04896   0.04896
     Eigenvalues ---    0.04896   0.04896   0.04896   0.04896   0.04896
     Eigenvalues ---    0.05720   0.05720   0.05720   0.05720   0.07655
     Eigenvalues ---    0.07655   0.07655   0.07655   0.07655   0.07655
     Eigenvalues ---    0.07655   0.07655   0.11701   0.11701   0.11701
     Eigenvalues ---    0.11701   0.11701   0.11701   0.11701   0.11701
     Eigenvalues ---    0.16000   0.16000   0.16000   0.16000   0.16000
     Eigenvalues ---    0.16000   0.21948   0.21948   0.21948   0.21948
     Eigenvalues ---    0.21948   0.21948   0.21948   0.21948   0.28519
     Eigenvalues ---    0.28519   0.28519   0.28519   0.28519   0.28519
     Eigenvalues ---    0.28519   0.28519   0.28519   0.37230   0.37230
     Eigenvalues ---    0.37230   0.37230   0.37230   0.37230   0.37230
     Eigenvalues ---    0.37230   0.37230   0.37230   0.37230   0.37230
     Eigenvalues ---    0.37230   0.37230   0.37230   0.37230   0.37230
     Eigenvalues ---    0.37230   0.37230   0.37230   0.37230   0.37230
 RFO step:  Lambda=-3.46548355D-02 EMin= 2.36824119D-03
 Linear search not attempted -- first point.
 Maximum step size (   0.300) exceeded in Quadratic search.
    -- Step size scaled by   0.948
 Iteration  1 RMS(Cart)=  0.09706338 RMS(Int)=  0.00051413
 Iteration  2 RMS(Cart)=  0.00115259 RMS(Int)=  0.00015411
 Iteration  3 RMS(Cart)=  0.00000047 RMS(Int)=  0.00015411
 ClnCor:  largest displacement from symmetrization is 4.09D-08 for atom     3.
 Variable       Old X    -DE/DX   Delta X   Delta X   Delta X     New X
                                 (Linear)    (Quad)   (Total)
    R1        2.02201   0.01806   0.00000   0.04204   0.04204   2.06405
    R2        2.02201   0.01806   0.00000   0.04204   0.04204   2.06405
    R3        2.02201   0.01844   0.00000   0.04293   0.04293   2.06493
    R4        2.91018   0.00708   0.00000   0.02096   0.02096   2.93114
    R5        2.02201   0.01915   0.00000   0.04458   0.04458   2.06659
    R6        2.02201   0.01915   0.00000   0.04458   0.04458   2.06659
    R7        2.91018   0.00693   0.00000   0.02054   0.02054   2.93072
    R8        2.02201   0.01946   0.00000   0.04532   0.04532   2.06733
    R9        2.02201   0.01946   0.00000   0.04532   0.04532   2.06733
   R10        2.91018   0.00792   0.00000   0.02345   0.02345   2.93363
   R11        2.02201   0.01936   0.00000   0.04507   0.04507   2.06708
   R12        2.02201   0.01936   0.00000   0.04507   0.04507   2.06708
   R13        2.91018   0.00804   0.00000   0.02382   0.02382   2.93400
   R14        2.02201   0.01938   0.00000   0.04511   0.04511   2.06712
   R15        2.02201   0.01938   0.00000   0.04511   0.04511   2.06712
   R16        2.91018   0.00803   0.00000   0.02379   0.02379   2.93396
   R17        2.02201   0.01938   0.00000   0.04511   0.04511   2.06712
   R18        2.02201   0.01938   0.00000   0.04511   0.04511   2.06712
   R19        2.91018   0.00804   0.00000   0.02382   0.02382   2.93400
   R20        2.02201   0.01936   0.00000   0.04507   0.04507   2.06708
   R21        2.02201   0.01936   0.00000   0.04507   0.04507   2.06708
   R22        2.91018   0.00792   0.00000   0.02345   0.02345   2.93363
   R23        2.02201   0.01946   0.00000   0.04532   0.04532   2.06733
   R24        2.02201   0.01946   0.00000   0.04532   0.04532   2.06733
   R25        2.91018   0.00693   0.00000   0.02054   0.02054   2.93072
   R26        2.02201   0.01915   0.00000   0.04458   0.04458   2.06659
   R27        2.02201   0.01915   0.00000   0.04458   0.04458   2.06659
   R28        2.91018   0.00708   0.00000   0.02096   0.02096   2.93114
   R29        2.02201   0.01806   0.00000   0.04204   0.04204   2.06405
   R30        2.02201   0.01844   0.00000   0.04293   0.04293   2.06493
   R31        2.02201   0.01806   0.00000   0.04204   0.04204   2.06405
    A1        1.91063  -0.00343   0.00000  -0.01885  -0.01890   1.89174
    A2        1.91063  -0.00447   0.00000  -0.02067  -0.02095   1.88968
    A3        1.91063   0.00294   0.00000   0.01377   0.01359   1.92422
    A4        1.91063  -0.00447   0.00000  -0.02067  -0.02095   1.88968
    A5        1.91063   0.00294   0.00000   0.01377   0.01359   1.92422
    A6        1.91063   0.00649   0.00000   0.03266   0.03236   1.94299
    A7        1.91063  -0.00284   0.00000  -0.00510  -0.00522   1.90541
    A8        1.91063  -0.00284   0.00000  -0.00510  -0.00522   1.90541
    A9        1.91063   0.01251   0.00000   0.05348   0.05327   1.96390
   A10        1.91063   0.00023   0.00000  -0.02117  -0.02143   1.88920
   A11        1.91063  -0.00353   0.00000  -0.01105  -0.01138   1.89926
   A12        1.91063  -0.00353   0.00000  -0.01105  -0.01138   1.89926
   A13        1.91063  -0.00400   0.00000  -0.01131  -0.01158   1.89905
   A14        1.91063  -0.00400   0.00000  -0.01131  -0.01158   1.89905
   A15        1.91063   0.01493   0.00000   0.06271   0.06249   1.97313
   A16        1.91063   0.00080   0.00000  -0.01961  -0.01997   1.89067
   A17        1.91063  -0.00387   0.00000  -0.01024  -0.01046   1.90017
   A18        1.91063  -0.00387   0.00000  -0.01024  -0.01046   1.90017
   A19        1.91063  -0.00401   0.00000  -0.01101  -0.01126   1.89937
   A20        1.91063  -0.00401   0.00000  -0.01101  -0.01126   1.89937
   A21        1.91063   0.01520   0.00000   0.06375   0.06354   1.97417
   A22        1.91063   0.00086   0.00000  -0.01955  -0.01992   1.89071
   A23        1.91063  -0.00402   0.00000  -0.01109  -0.01134   1.89929
   A24        1.91063  -0.00402   0.00000  -0.01109  -0.01134   1.89929
   A25        1.91063  -0.00404   0.00000  -0.01110  -0.01135   1.89929
   A26        1.91063  -0.00404   0.00000  -0.01110  -0.01135   1.89929
   A27        1.91063   0.01531   0.00000   0.06419   0.06397   1.97461
   A28        1.91063   0.00087   0.00000  -0.01959  -0.01997   1.89067
   A29        1.91063  -0.00405   0.00000  -0.01120  -0.01146   1.89917
   A30        1.91063  -0.00405   0.00000  -0.01120  -0.01146   1.89917
   A31        1.91063  -0.00405   0.00000  -0.01120  -0.01146   1.89917
   A32        1.91063  -0.00405   0.00000  -0.01120  -0.01146   1.89917
   A33        1.91063   0.01531   0.00000   0.06419   0.06397   1.97461
   A34        1.91063   0.00087   0.00000  -0.01959  -0.01997   1.89067
   A35        1.91063  -0.00404   0.00000  -0.01110  -0.01135   1.89929
   A36        1.91063  -0.00404   0.00000  -0.01110  -0.01135   1.89929
   A37        1.91063  -0.00402   0.00000  -0.01109  -0.01134   1.89929
   A38        1.91063  -0.00402   0.00000  -0.01109  -0.01134   1.89929
   A39        1.91063   0.01520   0.00000   0.06375   0.06354   1.97417
   A40        1.91063   0.00086   0.00000  -0.01955  -0.01992   1.89071
   A41        1.91063  -0.00401   0.00000  -0.01101  -0.01126   1.89937
   A42        1.91063  -0.00401   0.00000  -0.01101  -0.01126   1.89937
   A43        1.91063  -0.00387   0.00000  -0.01024  -0.01046   1.90017
   A44        1.91063  -0.00387   0.00000  -0.01024  -0.01046   1.90017
   A45        1.91063   0.01493   0.00000   0.06271   0.06249   1.97313
   A46        1.91063   0.00080   0.00000  -0.01961  -0.01997   1.89067
   A47        1.91063  -0.00400   0.00000  -0.01131  -0.01158   1.89905
   A48        1.91063  -0.00400   0.00000  -0.01131  -0.01158   1.89905
   A49        1.91063  -0.00353   0.00000  -0.01105  -0.01138   1.89926
   A50        1.91063  -0.00353   0.00000  -0.01105  -0.01138   1.89926
   A51        1.91063   0.01251   0.00000   0.05348   0.05327   1.96390
   A52        1.91063   0.00023   0.00000  -0.02117  -0.02143   1.88920
   A53        1.91063  -0.00284   0.00000  -0.00510  -0.00522   1.90541
   A54        1.91063  -0.00284   0.00000  -0.00510  -0.00522   1.90541
   A55        1.91063   0.00294   0.00000   0.01377   0.01359   1.92422
   A56        1.91063   0.00649   0.00000   0.03266   0.03236   1.94299
   A57        1.91063   0.00294   0.00000   0.01377   0.01359   1.92422
   A58        1.91063  -0.00447   0.00000  -0.02067  -0.02095   1.88968
   A59        1.91063  -0.00343   0.00000  -0.01885  -0.01890   1.89174
   A60        1.91063  -0.00447   0.00000  -0.02067  -0.02095   1.88968
    D1        3.14159   0.00129   0.00000   0.01298   0.01297  -3.12862
    D2       -1.04720  -0.00190   0.00000  -0.01920  -0.01932  -1.06652
    D3        1.04720  -0.00030   0.00000  -0.00311  -0.00317   1.04402
    D4        1.04720   0.00190   0.00000   0.01920   0.01932   1.06652
    D5        3.14159  -0.00129   0.00000  -0.01298  -0.01297   3.12862
    D6       -1.04720   0.00030   0.00000   0.00311   0.00317  -1.04402
    D7       -1.04720   0.00159   0.00000   0.01609   0.01614  -1.03105
    D8        1.04720  -0.00159   0.00000  -0.01609  -0.01614   1.03105
    D9        3.14159   0.00000   0.00000   0.00000   0.00000   3.14159
   D10        1.04720  -0.00196   0.00000  -0.01894  -0.01890   1.02830
   D11       -1.04720   0.00196   0.00000   0.01894   0.01890  -1.02830
   D12        3.14159   0.00000   0.00000   0.00000   0.00000   3.14159
   D13       -1.04720  -0.00398   0.00000  -0.03867  -0.03857  -1.08576
   D14        3.14159  -0.00007   0.00000  -0.00080  -0.00076   3.14083
   D15        1.04720  -0.00202   0.00000  -0.01973  -0.01966   1.02753
   D16        3.14159   0.00007   0.00000   0.00080   0.00076  -3.14083
   D17        1.04720   0.00398   0.00000   0.03867   0.03857   1.08576
   D18       -1.04720   0.00202   0.00000   0.01973   0.01966  -1.02753
   D19        1.04720  -0.00193   0.00000  -0.01872  -0.01869   1.02850
   D20       -1.04720   0.00193   0.00000   0.01872   0.01869  -1.02850
   D21        3.14159   0.00000   0.00000   0.00000   0.00000  -3.14159
   D22        3.14159  -0.00005   0.00000  -0.00044  -0.00042   3.14117
   D23        1.04720   0.00381   0.00000   0.03700   0.03696   1.08416
   D24       -1.04720   0.00188   0.00000   0.01828   0.01827  -1.02893
   D25       -1.04720  -0.00381   0.00000  -0.03700  -0.03696  -1.08416
   D26        3.14159   0.00005   0.00000   0.00044   0.00042  -3.14117
   D27        1.04720  -0.00188   0.00000  -0.01828  -0.01827   1.02893
   D28        1.04720  -0.00194   0.00000  -0.01879  -0.01877   1.02843
   D29       -1.04720   0.00194   0.00000   0.01879   0.01877  -1.02843
   D30        3.14159   0.00000   0.00000   0.00000   0.00000   3.14159
   D31       -3.14159   0.00000   0.00000  -0.00003  -0.00003   3.14156
   D32        1.04720   0.00388   0.00000   0.03756   0.03751   1.08471
   D33       -1.04720   0.00194   0.00000   0.01876   0.01874  -1.02846
   D34       -1.04720  -0.00388   0.00000  -0.03756  -0.03751  -1.08471
   D35        3.14159   0.00000   0.00000   0.00003   0.00003  -3.14156
   D36        1.04720  -0.00194   0.00000  -0.01876  -0.01874   1.02846
   D37        1.04720  -0.00195   0.00000  -0.01886  -0.01883   1.02836
   D38       -1.04720   0.00195   0.00000   0.01886   0.01883  -1.02836
   D39        3.14159   0.00000   0.00000   0.00000   0.00000  -3.14159
   D40        3.14159   0.00000   0.00000   0.00000   0.00000   3.14159
   D41        1.04720   0.00389   0.00000   0.03772   0.03767   1.08487
   D42       -1.04720   0.00195   0.00000   0.01886   0.01883  -1.02836
   D43       -1.04720  -0.00389   0.00000  -0.03772  -0.03767  -1.08487
   D44        3.14159   0.00000   0.00000   0.00000   0.00000   3.14159
   D45        1.04720  -0.00195   0.00000  -0.01886  -0.01883   1.02836
   D46        1.04720  -0.00194   0.00000  -0.01876  -0.01874   1.02846
   D47       -1.04720   0.00194   0.00000   0.01876   0.01874  -1.02846
   D48       -3.14159   0.00000   0.00000   0.00000   0.00000   3.14159
   D49        3.14159   0.00000   0.00000   0.00003   0.00003  -3.14156
   D50        1.04720   0.00388   0.00000   0.03756   0.03751   1.08471
   D51       -1.04720   0.00194   0.00000   0.01879   0.01877  -1.02843
   D52       -1.04720  -0.00388   0.00000  -0.03756  -0.03751  -1.08471
   D53        3.14159   0.00000   0.00000  -0.00003  -0.00003   3.14156
   D54        1.04720  -0.00194   0.00000  -0.01879  -0.01877   1.02843
   D55        1.04720  -0.00188   0.00000  -0.01828  -0.01827   1.02893
   D56       -1.04720   0.00188   0.00000   0.01828   0.01827  -1.02893
   D57        3.14159   0.00000   0.00000   0.00000   0.00000   3.14159
   D58        3.14159   0.00005   0.00000   0.00044   0.00042  -3.14117
   D59        1.04720   0.00381   0.00000   0.03700   0.03696   1.08416
   D60       -1.04720   0.00193   0.00000   0.01872   0.01869  -1.02850
   D61       -1.04720  -0.00381   0.00000  -0.03700  -0.03696  -1.08416
   D62        3.14159  -0.00005   0.00000  -0.00044  -0.00042   3.14117
   D63        1.04720  -0.00193   0.00000  -0.01872  -0.01869   1.02850
   D64        1.04720  -0.00202   0.00000  -0.01973  -0.01966   1.02753
   D65       -1.04720   0.00202   0.00000   0.01973   0.01966  -1.02753
   D66        3.14159   0.00000   0.00000   0.00000   0.00000   3.14159
   D67        3.14159  -0.00007   0.00000  -0.00080  -0.00076   3.14083
   D68        1.04720   0.00398   0.00000   0.03867   0.03857   1.08576
   D69       -1.04720   0.00196   0.00000   0.01894   0.01890  -1.02830
   D70       -1.04720  -0.00398   0.00000  -0.03867  -0.03857  -1.08576
   D71        3.14159   0.00007   0.00000   0.00080   0.00076  -3.14083
   D72        1.04720  -0.00196   0.00000  -0.01894  -0.01890   1.02830
   D73        1.04720  -0.00030   0.00000  -0.00311  -0.00317   1.04402
   D74        3.14159   0.00000   0.00000   0.00000   0.00000   3.14159
   D75       -1.04720   0.00030   0.00000   0.00311   0.00317  -1.04402
   D76        3.14159   0.00129   0.00000   0.01298   0.01297  -3.12862
   D77       -1.04720   0.00159   0.00000   0.01609   0.01614  -1.03105
   D78        1.04720   0.00190   0.00000   0.01920   0.01932   1.06652
   D79       -1.04720  -0.00190   0.00000  -0.01920  -0.01932  -1.06652
   D80        1.04720  -0.00159   0.00000  -0.01609  -0.01614   1.03105
   D81        3.14159  -0.00129   0.00000  -0.01298  -0.01297   3.12862
         Item               Value     Threshold  Converged?
 Maximum Force            0.019465     0.000450     NO 
 RMS     Force            0.008074     0.000300     NO 
 Maximum Displacement     0.291266     0.001800     NO 
 RMS     Displacement     0.095951     0.001200     NO 
 Predicted change in Energy=-1.941126D-02
 GradGradGradGradGradGradGradGradGradGradGradGradGradGradGradGradGradGrad

                          Input orientation:                          
 ---------------------------------------------------------------------
 Center     Atomic      Atomic             Coordinates (Angstroms)
 Number     Number       Type             X           Y           Z
 ---------------------------------------------------------------------
      1          6           0       -7.741540    0.269131   -0.078502
      2          1           0       -7.393580   -0.765996   -0.099537
      3          1           0       -7.393249    0.768212   -0.985486
      4          1           0       -8.834195    0.263519   -0.088629
      5          6           0       -7.192803    0.994541    1.177903
      6          1           0       -7.562093    2.023840    1.188283
      7          1           0       -7.562425    0.489153    2.074509
      8          6           0       -5.642701    1.018717    1.220348
      9          1           0       -5.273177    1.525009    0.323733
     10          1           0       -5.273509   -0.011041    1.210746
     11          6           0       -5.080126    1.742175    2.473379
     12          1           0       -5.450392    1.235641    3.369389
     13          1           0       -5.450060    2.771531    2.482469
     14          6           0       -3.528344    1.767188    2.517273
     15          1           0       -3.158076    2.273705    1.621227
     16          1           0       -3.158407    0.737809    2.508151
     17          6           0       -2.965071    2.490606    3.770236
     18          1           0       -3.335339    1.984089    4.666282
     19          1           0       -3.335007    3.519985    3.779358
     20          6           0       -1.413289    2.515619    3.814130
     21          1           0       -1.043023    3.022153    2.918120
     22          1           0       -1.043355    1.486263    3.805040
     23          6           0       -0.850714    3.239077    5.067161
     24          1           0       -1.220238    2.732785    5.963776
     25          1           0       -1.219906    4.268835    5.076763
     26          6           0        0.699388    3.263253    5.109606
     27          1           0        1.069010    3.768641    4.213000
     28          1           0        1.068679    2.233954    5.099226
     29          6           0        1.248126    3.988663    6.366011
     30          1           0        0.899835    3.489582    7.272995
     31          1           0        2.340780    3.994275    6.376138
     32          1           0        0.900166    5.023790    6.387046
 ---------------------------------------------------------------------
                    Distance matrix (angstroms):
                    1          2          3          4          5
     1  C    0.000000
     2  H    1.092249   0.000000
     3  H    1.092249   1.771638   0.000000
     4  H    1.092716   1.770703   1.770703   0.000000
     5  C    1.551093   2.184412   2.184412   2.198332   0.000000
     6  H    2.171624   3.077347   2.516025   2.519419   1.093590
     7  H    2.171624   2.516025   3.077347   2.519419   1.093590
     8  C    2.579538   2.827167   2.827167   3.531200   1.550871
     9  H    2.798542   3.150234   2.604132   3.800295   2.167017
    10  H    2.798542   2.604132   3.150234   3.800295   2.167017
    11  C    3.970527   4.273511   4.273511   4.779471   2.588555
    12  H    4.251054   4.451514   4.791463   4.934879   2.810113
    13  H    4.251054   4.791463   4.451514   4.934879   2.810113
    14  C    5.170421   5.310816   5.310816   6.099491   3.977330
    15  H    5.283516   5.490019   5.195975   6.259615   4.255798
    16  H    5.283516   5.195975   5.490019   6.259615   4.255798
    17  C    6.523986   6.722522   6.722522   7.368675   5.179972
    18  H    6.698408   6.837055   7.063106   7.470405   5.294149
    19  H    6.698408   7.063106   6.837055   7.470405   5.294149
    20  C    7.761833   7.864456   7.864456   8.681781   6.531933
    21  H    7.837666   7.986608   7.787410   8.795053   6.705173
    22  H    7.837666   7.787410   7.986608   8.795053   6.705173
    23  C    9.098457   9.249026   9.249026   9.958518   7.770866
    24  H    9.225297   9.333563   9.500414  10.035000   7.848414
    25  H    9.225297   9.500414   9.333563  10.035000   7.848414
    26  C   10.350386  10.433894  10.433894  11.265400   9.104505
    27  H   10.406217  10.525034  10.374809  11.351799   9.228488
    28  H   10.406217  10.374809  10.525034  11.351799   9.228488
    29  C   11.669652  11.793607  11.793607  12.537634  10.350386
[...]
 Alpha virt. eigenvalues --    0.16588   0.17478   0.17738   0.18793   0.19654
 Alpha virt. eigenvalues --    0.19931   0.19980   0.20204   0.20270   0.20874
 Alpha virt. eigenvalues --    0.21409   0.21692   0.21731   0.23150   0.23377
 Alpha virt. eigenvalues --    0.24691   0.26320   0.26414   0.28261   0.32504
 Alpha virt. eigenvalues --    0.32602   0.50129   0.52600   0.53622   0.54498
 Alpha virt. eigenvalues --    0.57509   0.57643   0.58465   0.59412   0.59481
 Alpha virt. eigenvalues --    0.59979   0.60366   0.62005   0.64312   0.66779
 Alpha virt. eigenvalues --    0.66932   0.67343   0.68108   0.71818   0.73137
 Alpha virt. eigenvalues --    0.73399   0.74191   0.77869   0.79432   0.80066
 Alpha virt. eigenvalues --    0.82754   0.82767   0.84998   0.87402   0.87444
 Alpha virt. eigenvalues --    0.89451   0.89712   0.92655   0.93162   0.94509
 Alpha virt. eigenvalues --    0.94561   0.96216   0.96634   0.97468   0.99189
 Alpha virt. eigenvalues --    0.99411   1.00323   1.00507   1.00592   1.01716
 Alpha virt. eigenvalues --    1.02001   1.02028   1.03118   1.04498   1.04506
 Alpha virt. eigenvalues --    1.10949   1.16287   1.22444   1.27600   1.32499
 Alpha virt. eigenvalues --    1.39319   1.44310   1.47728   1.49229   1.50291
 Alpha virt. eigenvalues --    1.58850   1.78865   1.98163
          Condensed to atoms (all electrons):
               1          2          3          4          5          6
     1  C    5.086840   0.376342   0.376342   0.368112   0.325851  -0.041275
     2  H    0.376342   0.597857  -0.034446  -0.033088  -0.037849   0.005241
     3  H    0.376342  -0.034446   0.597857  -0.033088  -0.037849  -0.004740
     4  H    0.368112  -0.033088  -0.033088   0.599475  -0.029404  -0.002673
     5  C    0.325851  -0.037849  -0.037849  -0.029404   5.054489   0.378653
     6  H   -0.041275   0.005241  -0.004740  -0.002673   0.378653   0.626234
     7  H   -0.041275  -0.004740   0.005241  -0.002673   0.378653  -0.041714
     8  C   -0.044821  -0.004409  -0.004409   0.004323   0.330904  -0.043804
     9  H   -0.002493  -0.000498   0.004951  -0.000016  -0.044281  -0.005816
    10  H   -0.002493   0.004951  -0.000498  -0.000016  -0.044281   0.005935
    11  C    0.004136   0.000049   0.000049  -0.000159  -0.036069  -0.003079
    12  H    0.000042   0.000001   0.000006   0.000002  -0.003042  -0.000565
    13  H    0.000042   0.000006   0.000001   0.000002  -0.003042   0.005203
    14  C   -0.000153   0.000001   0.000001   0.000001   0.003899   0.000038
    15  H    0.000002   0.000000  -0.000001   0.000000   0.000037   0.000003
    16  H    0.000002  -0.000001   0.000000   0.000000   0.000037   0.000005
    17  C    0.000001   0.000000   0.000000   0.000000  -0.000141   0.000002
    18  H    0.000000   0.000000   0.000000   0.000000   0.000002   0.000001
    19  H    0.000000   0.000000   0.000000   0.000000   0.000002  -0.000002
    20  C    0.000000   0.000000   0.000000   0.000000   0.000001   0.000000
    21  H    0.000000   0.000000   0.000000   0.000000   0.000000   0.000000
    22  H    0.000000   0.000000   0.000000   0.000000   0.000000   0.000000
    23  C    0.000000   0.000000   0.000000   0.000000   0.000000   0.000000
    24  H    0.000000   0.000000   0.000000   0.000000   0.000000   0.000000
    25  H    0.000000   0.000000   0.000000   0.000000   0.000000   0.000000
    26  C    0.000000   0.000000   0.000000   0.000000   0.000000   0.000000
    27  H    0.000000   0.000000   0.000000   0.000000   0.000000   0.000000
    28  H    0.000000   0.000000   0.000000   0.000000   0.000000   0.000000
    29  C    0.000000   0.000000   0.000000   0.000000   0.000000   0.000000
    30  H    0.000000   0.000000   0.000000   0.000000   0.000000   0.000000
    31  H    0.000000   0.000000   0.000000   0.000000   0.000000   0.000000
    32  H    0.000000   0.000000   0.000000   0.000000   0.000000   0.000000
               7          8          9         10         11         12
     1  C   -0.041275  -0.044821  -0.002493  -0.002493   0.004136   0.000042
     2  H   -0.004740  -0.004409  -0.000498   0.004951   0.000049   0.000001
     3  H    0.005241  -0.004409   0.004951  -0.000498   0.000049   0.000006
     4  H   -0.002673   0.004323  -0.000016  -0.000016  -0.000159   0.000002
     5  C    0.378653   0.330904  -0.044281  -0.044281  -0.036069  -0.003042
     6  H   -0.041714  -0.043804  -0.005816   0.005935  -0.003079  -0.000565
     7  H    0.626234  -0.043804   0.005935  -0.005816  -0.003079   0.005203
     8  C   -0.043804   5.091842   0.375754   0.375754   0.318140  -0.043588
     9  H    0.005935   0.375754   0.631838  -0.042470  -0.043324   0.005890
    10  H   -0.005816   0.375754  -0.042470   0.631838  -0.043324  -0.005732
    11  C   -0.003079   0.318140  -0.043324  -0.043324   5.103859   0.375561
    12  H    0.005203  -0.043588   0.005890  -0.005732   0.375561   0.631179
    13  H   -0.000565  -0.043588  -0.005732   0.005890   0.375561  -0.042287
    14  C    0.000038  -0.035523  -0.002979  -0.002979   0.314363  -0.043570
    15  H    0.000005  -0.002964   0.005083  -0.000546  -0.043589   0.005883
    16  H    0.000003  -0.002964  -0.000546   0.005083  -0.043589  -0.005729
    17  C    0.000002   0.003852   0.000046   0.000046  -0.035277  -0.002924
    18  H   -0.000002   0.000041   0.000005   0.000004  -0.002929   0.005096
    19  H    0.000001   0.000041   0.000004   0.000005  -0.002929  -0.000546
    20  C    0.000000  -0.000141   0.000001   0.000001   0.003826   0.000042
    21  H    0.000000   0.000002  -0.000002   0.000001   0.000042   0.000005
    22  H    0.000000   0.000002   0.000001  -0.000002   0.000042   0.000004
    23  C    0.000000   0.000001   0.000000   0.000000  -0.000141   0.000002
    24  H    0.000000   0.000000   0.000000   0.000000   0.000001  -0.000002
    25  H    0.000000   0.000000   0.000000   0.000000   0.000001   0.000001
    26  C    0.000000   0.000000   0.000000   0.000000   0.000001   0.000000
    27  H    0.000000   0.000000   0.000000   0.000000   0.000000   0.000000
    28  H    0.000000   0.000000   0.000000   0.000000   0.000000   0.000000
    29  C    0.000000   0.000000   0.000000   0.000000   0.000000   0.000000
    30  H    0.000000   0.000000   0.000000   0.000000   0.000000   0.000000
    31  H    0.000000   0.000000   0.000000   0.000000   0.000000   0.000000
    32  H    0.000000   0.000000   0.000000   0.000000   0.000000   0.000000
              13         14         15         16         17         18
     1  C    0.000042  -0.000153   0.000002   0.000002   0.000001   0.000000
     2  H    0.000006   0.000001   0.000000  -0.000001   0.000000   0.000000
     3  H    0.000001   0.000001  -0.000001   0.000000   0.000000   0.000000
     4  H    0.000002   0.000001   0.000000   0.000000   0.000000   0.000000
     5  C   -0.003042   0.003899   0.000037   0.000037  -0.000141   0.000002
     6  H    0.005203   0.000038   0.000003   0.000005   0.000002   0.000001
     7  H   -0.000565   0.000038   0.000005   0.000003   0.000002  -0.000002
     8  C   -0.043588  -0.035523  -0.002964  -0.002964   0.003852   0.000041
     9  H   -0.005732  -0.002979   0.005083  -0.000546   0.000046   0.000005
    10  H    0.005890  -0.002979  -0.000546   0.005083   0.000046   0.000004
    11  C    0.375561   0.314363  -0.043589  -0.043589  -0.035277  -0.002929
    12  H   -0.042287  -0.043570   0.005883  -0.005729  -0.002924   0.005096
    13  H    0.631179  -0.043570  -0.005729   0.005883  -0.002924  -0.000546
    14  C   -0.043570   5.108546   0.375631   0.375631   0.313413  -0.043580
    15  H   -0.005729   0.375631   0.631011  -0.042259  -0.043580   0.005881
    16  H    0.005883   0.375631  -0.042259   0.631011  -0.043580  -0.005727
    17  C   -0.002924   0.313413  -0.043580  -0.043580   5.108546   0.375631
    18  H   -0.000546  -0.043580   0.005881  -0.005727   0.375631   0.631011
    19  H    0.005096  -0.043580  -0.005727   0.005881   0.375631  -0.042259
    20  C    0.000042  -0.035277  -0.002929  -0.002929   0.314363  -0.043589
    21  H    0.000004  -0.002924   0.005096  -0.000546  -0.043570   0.005883
    22  H    0.000005  -0.002924  -0.000546   0.005096  -0.043570  -0.005729
    23  C    0.000002   0.003852   0.000041   0.000041  -0.035523  -0.002964
    24  H    0.000001   0.000046   0.000005   0.000004  -0.002979   0.005083
    25  H   -0.000002   0.000046   0.000004   0.000005  -0.002979  -0.000546
    26  C    0.000000  -0.000141   0.000002   0.000002   0.003899   0.000037
    27  H    0.000000   0.000002  -0.000002   0.000001   0.000038   0.000005
    28  H    0.000000   0.000002   0.000001  -0.000002   0.000038   0.000003
    29  C    0.000000   0.000001   0.000000   0.000000  -0.000153   0.000002
    30  H    0.000000   0.000000   0.000000   0.000000   0.000001  -0.000001
    31  H    0.000000   0.000000   0.000000   0.000000   0.000001   0.000000
    32  H    0.000000   0.000000   0.000000   0.000000   0.000001   0.000000
              19         20         21         22         23         24
     1  C    0.000000   0.000000   0.000000   0.000000   0.000000   0.000000
     2  H    0.000000   0.000000   0.000000   0.000000   0.000000   0.000000
     3  H    0.000000   0.000000   0.000000   0.000000   0.000000   0.000000
     4  H    0.000000   0.000000   0.000000   0.000000   0.000000   0.000000
     5  C    0.000002   0.000001   0.000000   0.000000   0.000000   0.000000
     6  H   -0.000002   0.000000   0.000000   0.000000   0.000000   0.000000
     7  H    0.000001   0.000000   0.000000   0.000000   0.000000   0.000000
     8  C    0.000041  -0.000141   0.000002   0.000002   0.000001   0.000000
     9  H    0.000004   0.000001  -0.000002   0.000001   0.000000   0.000000
    10  H    0.000005   0.000001   0.000001  -0.000002   0.000000   0.000000
    11  C   -0.002929   0.003826   0.000042   0.000042  -0.000141   0.000001
    12  H   -0.000546   0.000042   0.000005   0.000004   0.000002  -0.000002
    13  H    0.005096   0.000042   0.000004   0.000005   0.000002   0.000001
    14  C   -0.043580  -0.035277  -0.002924  -0.002924   0.003852   0.000046
    15  H   -0.005727  -0.002929   0.005096  -0.000546   0.000041   0.000005
    16  H    0.005881  -0.002929  -0.000546   0.005096   0.000041   0.000004
    17  C    0.375631   0.314363  -0.043570  -0.043570  -0.035523  -0.002979
    18  H   -0.042259  -0.043589   0.005883  -0.005729  -0.002964   0.005083
    19  H    0.631011  -0.043589  -0.005729   0.005883  -0.002964  -0.000546
    20  C   -0.043589   5.103859   0.375561   0.375561   0.318140  -0.043324
    21  H   -0.005729   0.375561   0.631179  -0.042287  -0.043588   0.005890
    22  H    0.005883   0.375561  -0.042287   0.631179  -0.043588  -0.005732
    23  C   -0.002964   0.318140  -0.043588  -0.043588   5.091842   0.375754
    24  H   -0.000546  -0.043324   0.005890  -0.005732   0.375754   0.631838
    25  H    0.005083  -0.043324  -0.005732   0.005890   0.375754  -0.042470
    26  C    0.000037  -0.036069  -0.003042  -0.003042   0.330904  -0.044281
    27  H    0.000003  -0.003079   0.005203  -0.000565  -0.043804   0.005935
    28  H    0.000005  -0.003079  -0.000565   0.005203  -0.043804  -0.005816
    29  C    0.000002   0.004136   0.000042   0.000042  -0.044821  -0.002493
    30  H    0.000000   0.000049   0.000006   0.000001  -0.004409   0.004951
    31  H    0.000000  -0.000159   0.000002   0.000002   0.004323  -0.000016
    32  H   -0.000001   0.000049   0.000001   0.000006  -0.004409  -0.000498
              25         26         27         28         29         30
     1  C    0.000000   0.000000   0.000000   0.000000   0.000000   0.000000
     2  H    0.000000   0.000000   0.000000   0.000000   0.000000   0.000000
     3  H    0.000000   0.000000   0.000000   0.000000   0.000000   0.000000
     4  H    0.000000   0.000000   0.000000   0.000000   0.000000   0.000000
     5  C    0.000000   0.000000   0.000000   0.000000   0.000000   0.000000
     6  H    0.000000   0.000000   0.000000   0.000000   0.000000   0.000000
     7  H    0.000000   0.000000   0.000000   0.000000   0.000000   0.000000
     8  C    0.000000   0.000000   0.000000   0.000000   0.000000   0.000000
     9  H    0.000000   0.000000   0.000000   0.000000   0.000000   0.000000
    10  H    0.000000   0.000000   0.000000   0.000000   0.000000   0.000000
    11  C    0.000001   0.000001   0.000000   0.000000   0.000000   0.000000
    12  H    0.000001   0.000000   0.000000   0.000000   0.000000   0.000000
    13  H   -0.000002   0.000000   0.000000   0.000000   0.000000   0.000000
    14  C    0.000046  -0.000141   0.000002   0.000002   0.000001   0.000000
    15  H    0.000004   0.000002  -0.000002   0.000001   0.000000   0.000000
    16  H    0.000005   0.000002   0.000001  -0.000002   0.000000   0.000000
    17  C   -0.002979   0.003899   0.000038   0.000038  -0.000153   0.000001
    18  H   -0.000546   0.000037   0.000005   0.000003   0.000002  -0.000001
    19  H    0.005083   0.000037   0.000003   0.000005   0.000002   0.000000
    20  C   -0.043324  -0.036069  -0.003079  -0.003079   0.004136   0.000049
    21  H   -0.005732  -0.003042   0.005203  -0.000565   0.000042   0.000006
    22  H    0.005890  -0.003042  -0.000565   0.005203   0.000042   0.000001
    23  C    0.375754   0.330904  -0.043804  -0.043804  -0.044821  -0.004409
    24  H   -0.042470  -0.044281   0.005935  -0.005816  -0.002493   0.004951
    25  H    0.631838  -0.044281  -0.005816   0.005935  -0.002493  -0.000498
    26  C   -0.044281   5.054489   0.378653   0.378653   0.325851  -0.037849
    27  H   -0.005816   0.378653   0.626234  -0.041714  -0.041275   0.005241
    28  H    0.005935   0.378653  -0.041714   0.626234  -0.041275  -0.004740
    29  C   -0.002493   0.325851  -0.041275  -0.041275   5.086840   0.376342
    30  H   -0.000498  -0.037849   0.005241  -0.004740   0.376342   0.597857
    31  H   -0.000016  -0.029404  -0.002673  -0.002673   0.368112  -0.033088
    32  H    0.004951  -0.037849  -0.004740   0.005241   0.376342  -0.034446
              31         32
     1  C    0.000000   0.000000
     2  H    0.000000   0.000000
     3  H    0.000000   0.000000
     4  H    0.000000   0.000000
     5  C    0.000000   0.000000
     6  H    0.000000   0.000000
     7  H    0.000000   0.000000
     8  C    0.000000   0.000000
     9  H    0.000000   0.000000
    10  H    0.000000   0.000000
    11  C    0.000000   0.000000
    12  H    0.000000   0.000000
    13  H    0.000000   0.000000
    14  C    0.000000   0.000000
    15  H    0.000000   0.000000
    16  H    0.000000   0.000000
    17  C    0.000001   0.000001
    18  H    0.000000   0.000000
    19  H    0.000000  -0.000001
    20  C   -0.000159   0.000049
    21  H    0.000002   0.000001
    22  H    0.000002   0.000006
    23  C    0.004323  -0.004409
    24  H   -0.000016  -0.000498
    25  H   -0.000016   0.004951
    26  C   -0.029404  -0.037849
    27  H   -0.002673  -0.004740
    28  H   -0.002673   0.005241
    29  C    0.368112   0.376342
    30  H   -0.033088  -0.034446
    31  H    0.599475  -0.033088
    32  H   -0.033088   0.597857
 Mulliken charges:
               1
     1  C   -0.405204
     2  H    0.130581
     3  H    0.130581
     4  H    0.129202
     5  C   -0.236568
     6  H    0.122352
     7  H    0.122352
     8  C   -0.230642
     9  H    0.118648
    10  H    0.118648
    11  C   -0.238144
    12  H    0.119066
    13  H    0.119066
    14  C   -0.238311
    15  H    0.119186
    16  H    0.119186
    17  C   -0.238311
    18  H    0.119186
    19  H    0.119186
    20  C   -0.238144
    21  H    0.119066
    22  H    0.119066
    23  C   -0.230642
    24  H    0.118648
    25  H    0.118648
    26  C   -0.236568
    27  H    0.122352
    28  H    0.122352
    29  C   -0.405204
    30  H    0.130581
    31  H    0.129202
    32  H    0.130581
 Sum of Mulliken charges =   0.00000
 Mulliken charges with hydrogens summed into heavy atoms:
               1
     1  C   -0.014840
     5  C    0.008137
     8  C    0.006654
    11  C   -0.000012
    14  C    0.000061
    17  C    0.000061
    20  C   -0.000012
    23  C    0.006654
    26  C    0.008137
    29  C   -0.014840
 Electronic spatial extent (au):  <R**2>=           4557.9535
 Charge=              0.0000 electrons
 Dipole moment (field-independent basis, Debye):
    X=              0.0000    Y=              0.0000    Z=              0.0000  Tot=              0.0000
 Quadrupole moment (field-independent basis, Debye-Ang):
   XX=            -68.6642   YY=            -69.6132   ZZ=            -67.3723
   XY=             -0.0638   XZ=              0.0000   YZ=              0.0000
 Traceless Quadrupole moment (field-independent basis, Debye-Ang):
   XX=             -0.1143   YY=             -1.0633   ZZ=              1.1776
   XY=             -0.0638   XZ=              0.0000   YZ=              0.0000
 Octapole moment (field-independent basis, Debye-Ang**2):
  XXX=              0.0000  YYY=              0.0000  ZZZ=              0.0000  XYY=              0.0000
  XXY=              0.0000  XXZ=              0.0000  XZZ=              0.0000  YZZ=              0.0000
  YYZ=              0.0000  XYZ=              0.0000
 Hexadecapole moment (field-independent basis, Debye-Ang**3):
 XXXX=          -1832.2327 YYYY=          -4472.4987 ZZZZ=           -140.3461 XXXY=          -1281.2439
 XXXZ=              0.0000 YYYX=          -1313.0390 YYYZ=              0.0000 ZZZX=              0.0000
 ZZZY=              0.0000 XXYY=          -1038.8392 XXZZ=           -326.9567 YYZZ=           -743.9420
 XXYZ=              0.0000 YYXZ=              0.0000 ZZXY=           -429.1791
 N-N= 5.146127016235D+02 E-N=-1.940651796129D+03  KE= 3.918606615405D+02
 Symmetry AG   KE= 1.876262579327D+02
 Symmetry BG   KE= 9.903562919264D+00
 Symmetry AU   KE= 9.723544540288D+00
 Symmetry BU   KE= 1.846072961482D+02
 1|1|UNPC-6424705A076343F|FOpt|RB3LYP|6-31G|C10H22|TKMELDRUM|14-Mar-202
 3|0||# opt b3lyp/6-31g geom=connectivity||Title Card Required||0,1|C,-
 7.7175551566,0.2805981086,-0.0586360534|H,-7.3788132771,-0.7626278453,
 -0.094204033|H,-7.378482231,0.7711420387,-0.9799002591|H,-8.8138032547
 ,0.2767036083,-0.0657899462|C,-7.1659393306,0.9979956428,1.1838953142|
 H,-7.5465679501,2.0298336523,1.2116298292|H,-7.5468967711,0.5063729234
 ,2.0913728938|C,-5.6271988536,1.0260166848,1.2329947946|H,-5.245300175
 3,1.5182364049,0.3250645542|H,-5.2456292743,-0.006512096,1.2055512602|
 C,-5.0657704418,1.7426922466,2.4742795823|H,-5.4484936657,1.2500801383
 ,3.3815549547|H,-5.448164562,2.7748502428,2.5010557733|C,-3.527295789,
 1.7705034102,2.5230155145|H,-3.1445420528,2.2631188799,1.6157950007|H,
 -3.1448711472,0.7383912376,2.4962696617|C,-2.9661189215,2.4872905978,3
 .7644935118|H,-3.3488726577,1.9946751281,4.6717140256|H,-3.3485435633,
 3.5194027705,3.7912393646|C,-1.4276442687,2.5151017614,3.813229444|H,-
 1.0449210448,3.0077138698,2.9059540717|H,-1.0452501484,1.4829437653,3.
 786453253|C,-0.8662158569,3.2317773232,5.0545142317|H,-1.2481145352,2.
 7395576032,5.9624444722|H,-1.2477854362,4.2643061041,5.0819577661|C,0.
 6725246201,3.2597983652,5.1036137121|H,1.0534820606,3.7514210847,4.196
 1361325|H,1.0531532396,2.2279603557,5.0758791972|C,1.2241404461,3.9771
 958995,6.3461450797|H,0.8850675205,3.4866519694,7.2674092854|H,2.32038
 85442,3.9810903997,6.3532989726|H,0.8853985666,5.0204218533,6.38171305
 94||Version=EM64W-G16RevB.01|State=1-AG|HF=-394.2453402|RMSD=4.212e-00
 9|RMSF=1.249e-005|Dipole=0.,0.,0.|Quadrupole=-0.21104,0.4904495,-0.279
 4095,-0.137033,-0.2377076,-0.6668765|PG=C02H [SGH(C10H2),X(H20)]||@


 IF GOD HAD MEANT MAN TO SEE THE SUN RISE, HE
 WOULD HAVE SCHEDULED IT FOR A LATER HOUR.
 Job cpu time:       0 days  0 hours  4 minutes  8.0 seconds.
 Elapsed time:       0 days  0 hours  4 minutes  1.4 seconds.
 File lengths (MBytes):  RWF=     14 Int=      0 D2E=      0 Chk=      3 Scr=      1
 Normal termination of Gaussian 16 at Tue Mar 14 10:12:17 2023.
