 Entering Link 1 = C:\Gaussian\l1.exe PID=      3168.
  
 Copyright (c) 1988-2017, Gaussian, Inc.  All Rights Reserved.
  
 This is part of the Gaussian(R) 16 program.  It is based on
 the Gaussian(R) 09 system (copyright 2009, Gaussian, Inc.),
 the Gaussian(R) 03 system (copyright 2003, Gaussian, Inc.),
 the Gaussian(R) 98 system (copyright 1998, Gaussian, Inc.),
 the Gaussian(R) 94 system (copyright 1995, Gaussian, Inc.),
 the Gaussian 92(TM) system (copyright 1992, Gaussian, Inc.),
 the Gaussian 90(TM) system (copyright 1990, Gaussian, Inc.),
 the Gaussian 88(TM) system (copyright 1988, Gaussian, Inc.),
 the Gaussian 86(TM) system (copyright 1986, Carnegie Mellon
 University), and the Gaussian 82(TM) system (copyright 1983,
 Carnegie Mellon University). Gaussian is a federally registered
 trademark of Gaussian, Inc.
  
 This software contains proprietary and confidential information,
 including trade secrets, belonging to Gaussian, Inc.
  
 This software is provided under written license and may be
 used, copied, transmitted, or stored only in accord with that
 written license.
  
 The following legend is applicable only to US Government
 contracts under FAR:
  
                    RESTRICTED RIGHTS LEGEND
  
 Use, reproduction and disclosure by the US Government is
 subject to restrictions as set forth in subparagraphs (a)
 and (c) of the Commercial Computer Software - Restricted
 Rights clause in FAR 52.227-19.
  
 Gaussian, Inc.
 340 Quinnipiac St., Bldg. 40, Wallingford CT 06492
  
  
 ---------------------------------------------------------------
 Warning -- This program may not be used in any manner that
 competes with the business of Gaussian, Inc. or will provide
 assistance to any competitor of Gaussian, Inc.  The licensee
 of this program is prohibited from giving any competitor of
 Gaussian, Inc. access to this program.  By using this program,
 the user acknowledges that Gaussian, Inc. is engaged in the
 business of creating and licensing software in the field of
 computational chemistry and represents and warrants to the
 licensee that it is not a competitor of Gaussian, Inc. and that
 it will not use this program in any manner prohibited above.
 ---------------------------------------------------------------
  

 Cite this work as:
 Gaussian 16, Revision B.01,
 M. J. Frisch, G. W. Trucks, H. B. Schlegel, G. E. Scuseria, 
 M. A. Robb, J. R. Cheeseman, G. Scalmani, V. Barone, 
 G. A. Petersson, H. Nakatsuji, X. Li, M. Caricato, A. V. Marenich, 
 J. Bloino, B. G. Janesko, R. Gomperts, B. Mennucci, H. P. Hratchian, 
 J. V. Ortiz, A. F. Izmaylov, J. L. Sonnenberg, D. Williams-Young, 
 F. Ding, F. Lipparini, F. Egidi, J. Goings, B. Peng, A. Petrone, 
 T. Henderson, D. Ranasinghe, V. G. Zakrzewski, J. Gao, N. Rega, 
 G. Zheng, W. Liang, M. Hada, M. Ehara, K. Toyota, R. Fukuda, 
 J. Hasegawa, M. Ishida, T. Nakajima, Y. Honda, O. Kitao, H. Nakai, 
 T. Vreven, K. Throssell, J. A. Montgomery, Jr., J. E. Peralta, 
 F. Ogliaro, M. J. Bearpark, J. J. Heyd, E. N. Brothers, K. N. Kudin, 
 V. N. Staroverov, T. A. Keith, R. Kobayashi, J. Normand, 
 K. Raghavachari, A. P. Rendell, J. C. Burant, S. S. Iyengar, 
 J. Tomasi, M. Cossi, J. M. Millam, M. Klene, C. Adamo, R. Cammi, 
 J. W. Ochterski, R. L. Martin, K. Morokuma, O. Farkas, 
 J. B. Foresman, and D. J. Fox, Gaussian, Inc., Wallingford CT, 2016.
 
 ******************************************
 Gaussian 16:  EM64W-G16RevB.01 16-Dec-2017
                14-Mar-2023 
 ******************************************
 %chk=C:\Users\tkmeldrum\Documents\MDworking\C12H26.chk
 -----------------------------------
 # opt b3lyp/6-31g geom=connectivity
 -----------------------------------
 1/18=20,19=15,26=3,38=1,57=2/1,3;
 2/9=110,12=2,17=6,18=5,40=1/2;
 3/5=1,6=6,11=2,25=1,30=1,71=1,74=-5/1,2,3;
 4//1;
 5/5=2,38=5/2;
 6/7=2,8=2,9=2,10=2,28=1/1;
 7//1,2,3,16;
 1/18=20,19=15,26=3/3(2);
 2/9=110/2;
 99//99;
 2/9=110/2;
 3/5=1,6=6,11=2,25=1,30=1,71=1,74=-5/1,2,3;
 4/5=5,16=3,69=1/1;
 5/5=2,38=5/2;
 7//1,2,3,16;
 1/18=20,19=15,26=3/3(-5);
 2/9=110/2;
 6/7=2,8=2,9=2,10=2,19=2,28=1/1;
 99/9=1/99;
 -------------------
 Title Card Required
 -------------------
 Symbolic Z-matrix:
 Charge =  0 Multiplicity = 1
 C                    -8.80503  -3.5537    0.00014 
 H                    -8.44996  -4.56307   0.00137 
 H                    -8.44678  -3.05065  -0.87364 
 H                    -9.87503  -3.55201  -0.00083 
 C                    -8.29169  -2.82741   1.25735 
 H                    -8.64676  -1.81804   1.25612 
 H                    -8.64994  -3.33046   2.13114 
 C                    -6.75169  -2.82984   1.25874 
 H                    -6.39344  -2.32679   0.38496 
 H                    -6.39662  -3.83921   1.25998 
 C                    -6.23835  -2.10355   2.51596 
 H                    -6.5966   -2.6066    3.38974 
 H                    -6.59342  -1.09418   2.51472 
 C                    -4.69835  -2.10598   2.51735 
 H                    -4.3401   -1.60293   1.64357 
 H                    -4.34328  -3.11535   2.51859 
 C                    -4.18501  -1.37969   3.77456 
 H                    -4.54326  -1.88274   4.64835 
 H                    -4.54008  -0.37032   3.77333 
 C                    -2.64501  -1.38212   3.77596 
 H                    -2.28676  -0.87907   2.90217 
 H                    -2.28994  -2.39149   3.77719 
 C                    -2.13167  -0.65583   5.03317 
 H                    -2.48992  -1.15888   5.90695 
 H                    -2.48674   0.35354   5.03193 
 C                    -0.59167  -0.65826   5.03456 
 H                    -0.23342  -0.15521   4.16078 
 H                    -0.2366   -1.66763   5.0358 
 C                    -0.07833   0.06803   6.29177 
 H                    -0.43658  -0.43502   7.16556 
 H                    -0.4334    1.0774    6.29054 
 C                     1.46167   0.0656    6.29317 
 H                     1.81992   0.56865   5.41938 
 H                     1.81674  -0.94377   6.2944 
 C                     1.97501   0.79189   7.55038 
 H                     1.61676   0.28884   8.42416 
 H                     3.04501   0.7902    7.55135 
 H                     1.61994   1.80126   7.54915 
 

 GradGradGradGradGradGradGradGradGradGradGradGradGradGradGradGradGradGrad
 Berny optimization.
 Initialization pass.
                           ----------------------------
                           !    Initial Parameters    !
                           ! (Angstroms and Degrees)  !
 --------------------------                            --------------------------
 ! Name  Definition              Value          Derivative Info.                !
 --------------------------------------------------------------------------------
 ! R1    R(1,2)                  1.07           estimate D2E/DX2                !
 ! R2    R(1,3)                  1.07           estimate D2E/DX2                !
 ! R3    R(1,4)                  1.07           estimate D2E/DX2                !
 ! R4    R(1,5)                  1.54           estimate D2E/DX2                !
 ! R5    R(5,6)                  1.07           estimate D2E/DX2                !
 ! R6    R(5,7)                  1.07           estimate D2E/DX2                !
 ! R7    R(5,8)                  1.54           estimate D2E/DX2                !
 ! R8    R(8,9)                  1.07           estimate D2E/DX2                !
 ! R9    R(8,10)                 1.07           estimate D2E/DX2                !
 ! R10   R(8,11)                 1.54           estimate D2E/DX2                !
 ! R11   R(11,12)                1.07           estimate D2E/DX2                !
 ! R12   R(11,13)                1.07           estimate D2E/DX2                !
 ! R13   R(11,14)                1.54           estimate D2E/DX2                !
 ! R14   R(14,15)                1.07           estimate D2E/DX2                !
 ! R15   R(14,16)                1.07           estimate D2E/DX2                !
 ! R16   R(14,17)                1.54           estimate D2E/DX2                !
 ! R17   R(17,18)                1.07           estimate D2E/DX2                !
 ! R18   R(17,19)                1.07           estimate D2E/DX2                !
 ! R19   R(17,20)                1.54           estimate D2E/DX2                !
 ! R20   R(20,21)                1.07           estimate D2E/DX2                !
 ! R21   R(20,22)                1.07           estimate D2E/DX2                !
 ! R22   R(20,23)                1.54           estimate D2E/DX2                !
 ! R23   R(23,24)                1.07           estimate D2E/DX2                !
 ! R24   R(23,25)                1.07           estimate D2E/DX2                !
 ! R25   R(23,26)                1.54           estimate D2E/DX2                !
 ! R26   R(26,27)                1.07           estimate D2E/DX2                !
 ! R27   R(26,28)                1.07           estimate D2E/DX2                !
 ! R28   R(26,29)                1.54           estimate D2E/DX2                !
 ! R29   R(29,30)                1.07           estimate D2E/DX2                !
 ! R30   R(29,31)                1.07           estimate D2E/DX2                !
 ! R31   R(29,32)                1.54           estimate D2E/DX2                !
 ! R32   R(32,33)                1.07           estimate D2E/DX2                !
 ! R33   R(32,34)                1.07           estimate D2E/DX2                !
 ! R34   R(32,35)                1.54           estimate D2E/DX2                !
 ! R35   R(35,36)                1.07           estimate D2E/DX2                !
 ! R36   R(35,37)                1.07           estimate D2E/DX2                !
 ! R37   R(35,38)                1.07           estimate D2E/DX2                !
 ! A1    A(2,1,3)              109.4712         estimate D2E/DX2                !
 ! A2    A(2,1,4)              109.4712         estimate D2E/DX2                !
 ! A3    A(2,1,5)              109.4712         estimate D2E/DX2                !
 ! A4    A(3,1,4)              109.4712         estimate D2E/DX2                !
 ! A5    A(3,1,5)              109.4712         estimate D2E/DX2                !
 ! A6    A(4,1,5)              109.4712         estimate D2E/DX2                !
 ! A7    A(1,5,6)              109.4712         estimate D2E/DX2                !
 ! A8    A(1,5,7)              109.4712         estimate D2E/DX2                !
 ! A9    A(1,5,8)              109.4712         estimate D2E/DX2                !
 ! A10   A(6,5,7)              109.4712         estimate D2E/DX2                !
 ! A11   A(6,5,8)              109.4712         estimate D2E/DX2                !
 ! A12   A(7,5,8)              109.4712         estimate D2E/DX2                !
 ! A13   A(5,8,9)              109.4712         estimate D2E/DX2                !
 ! A14   A(5,8,10)             109.4712         estimate D2E/DX2                !
 ! A15   A(5,8,11)             109.4712         estimate D2E/DX2                !
 ! A16   A(9,8,10)             109.4712         estimate D2E/DX2                !
 ! A17   A(9,8,11)             109.4712         estimate D2E/DX2                !
 ! A18   A(10,8,11)            109.4712         estimate D2E/DX2                !
 ! A19   A(8,11,12)            109.4712         estimate D2E/DX2                !
 ! A20   A(8,11,13)            109.4712         estimate D2E/DX2                !
 ! A21   A(8,11,14)            109.4712         estimate D2E/DX2                !
 ! A22   A(12,11,13)           109.4712         estimate D2E/DX2                !
 ! A23   A(12,11,14)           109.4712         estimate D2E/DX2                !
 ! A24   A(13,11,14)           109.4712         estimate D2E/DX2                !
 ! A25   A(11,14,15)           109.4712         estimate D2E/DX2                !
 ! A26   A(11,14,16)           109.4712         estimate D2E/DX2                !
 ! A27   A(11,14,17)           109.4712         estimate D2E/DX2                !
 ! A28   A(15,14,16)           109.4712         estimate D2E/DX2                !
 ! A29   A(15,14,17)           109.4712         estimate D2E/DX2                !
 ! A30   A(16,14,17)           109.4712         estimate D2E/DX2                !
 ! A31   A(14,17,18)           109.4712         estimate D2E/DX2                !
 ! A32   A(14,17,19)           109.4712         estimate D2E/DX2                !
 ! A33   A(14,17,20)           109.4712         estimate D2E/DX2                !
 ! A34   A(18,17,19)           109.4712         estimate D2E/DX2                !
 ! A35   A(18,17,20)           109.4712         estimate D2E/DX2                !
 ! A36   A(19,17,20)           109.4712         estimate D2E/DX2                !
 ! A37   A(17,20,21)           109.4712         estimate D2E/DX2                !
 ! A38   A(17,20,22)           109.4712         estimate D2E/DX2                !
 ! A39   A(17,20,23)           109.4712         estimate D2E/DX2                !
 ! A40   A(21,20,22)           109.4712         estimate D2E/DX2                !
 ! A41   A(21,20,23)           109.4712         estimate D2E/DX2                !
 ! A42   A(22,20,23)           109.4712         estimate D2E/DX2                !
 ! A43   A(20,23,24)           109.4712         estimate D2E/DX2                !
 ! A44   A(20,23,25)           109.4712         estimate D2E/DX2                !
 ! A45   A(20,23,26)           109.4712         estimate D2E/DX2                !
 ! A46   A(24,23,25)           109.4712         estimate D2E/DX2                !
 ! A47   A(24,23,26)           109.4712         estimate D2E/DX2                !
 ! A48   A(25,23,26)           109.4712         estimate D2E/DX2                !
 ! A49   A(23,26,27)           109.4712         estimate D2E/DX2                !
 ! A50   A(23,26,28)           109.4712         estimate D2E/DX2                !
 ! A51   A(23,26,29)           109.4712         estimate D2E/DX2                !
 ! A52   A(27,26,28)           109.4712         estimate D2E/DX2                !
 ! A53   A(27,26,29)           109.4712         estimate D2E/DX2                !
 ! A54   A(28,26,29)           109.4712         estimate D2E/DX2                !
 ! A55   A(26,29,30)           109.4712         estimate D2E/DX2                !
 ! A56   A(26,29,31)           109.4712         estimate D2E/DX2                !
 ! A57   A(26,29,32)           109.4712         estimate D2E/DX2                !
 ! A58   A(30,29,31)           109.4712         estimate D2E/DX2                !
 ! A59   A(30,29,32)           109.4712         estimate D2E/DX2                !
 ! A60   A(31,29,32)           109.4712         estimate D2E/DX2                !
 ! A61   A(29,32,33)           109.4712         estimate D2E/DX2                !
 ! A62   A(29,32,34)           109.4712         estimate D2E/DX2                !
 ! A63   A(29,32,35)           109.4712         estimate D2E/DX2                !
 ! A64   A(33,32,34)           109.4712         estimate D2E/DX2                !
 ! A65   A(33,32,35)           109.4712         estimate D2E/DX2                !
 ! A66   A(34,32,35)           109.4712         estimate D2E/DX2                !
 ! A67   A(32,35,36)           109.4712         estimate D2E/DX2                !
 ! A68   A(32,35,37)           109.4712         estimate D2E/DX2                !
 ! A69   A(32,35,38)           109.4712         estimate D2E/DX2                !
 ! A70   A(36,35,37)           109.4712         estimate D2E/DX2                !
 ! A71   A(36,35,38)           109.4712         estimate D2E/DX2                !
 ! A72   A(37,35,38)           109.4712         estimate D2E/DX2                !
 ! D1    D(2,1,5,6)            180.0            estimate D2E/DX2                !
 ! D2    D(2,1,5,7)            -60.0            estimate D2E/DX2                !
 ! D3    D(2,1,5,8)             60.0            estimate D2E/DX2                !
 ! D4    D(3,1,5,6)             60.0            estimate D2E/DX2                !
 ! D5    D(3,1,5,7)            180.0            estimate D2E/DX2                !
 ! D6    D(3,1,5,8)            -60.0            estimate D2E/DX2                !
 ! D7    D(4,1,5,6)            -60.0            estimate D2E/DX2                !
 ! D8    D(4,1,5,7)             60.0            estimate D2E/DX2                !
 ! D9    D(4,1,5,8)            180.0            estimate D2E/DX2                !
 ! D10   D(1,5,8,9)             60.0            estimate D2E/DX2                !
 ! D11   D(1,5,8,10)           -60.0            estimate D2E/DX2                !
 ! D12   D(1,5,8,11)           180.0            estimate D2E/DX2                !
 ! D13   D(6,5,8,9)            -60.0            estimate D2E/DX2                !
 ! D14   D(6,5,8,10)           180.0            estimate D2E/DX2                !
 ! D15   D(6,5,8,11)            60.0            estimate D2E/DX2                !
 ! D16   D(7,5,8,9)            180.0            estimate D2E/DX2                !
 ! D17   D(7,5,8,10)            60.0            estimate D2E/DX2                !
 ! D18   D(7,5,8,11)           -60.0            estimate D2E/DX2                !
 ! D19   D(5,8,11,12)           60.0            estimate D2E/DX2                !
 ! D20   D(5,8,11,13)          -60.0            estimate D2E/DX2                !
 ! D21   D(5,8,11,14)          180.0            estimate D2E/DX2                !
 ! D22   D(9,8,11,12)          180.0            estimate D2E/DX2                !
 ! D23   D(9,8,11,13)           60.0            estimate D2E/DX2                !
 ! D24   D(9,8,11,14)          -60.0            estimate D2E/DX2                !
 ! D25   D(10,8,11,12)         -60.0            estimate D2E/DX2                !
 ! D26   D(10,8,11,13)         180.0            estimate D2E/DX2                !
 ! D27   D(10,8,11,14)          60.0            estimate D2E/DX2                !
 ! D28   D(8,11,14,15)          60.0            estimate D2E/DX2                !
 ! D29   D(8,11,14,16)         -60.0            estimate D2E/DX2                !
 ! D30   D(8,11,14,17)         180.0            estimate D2E/DX2                !
 ! D31   D(12,11,14,15)        180.0            estimate D2E/DX2                !
 ! D32   D(12,11,14,16)         60.0            estimate D2E/DX2                !
 ! D33   D(12,11,14,17)        -60.0            estimate D2E/DX2                !
 ! D34   D(13,11,14,15)        -60.0            estimate D2E/DX2                !
 ! D35   D(13,11,14,16)        180.0            estimate D2E/DX2                !
 ! D36   D(13,11,14,17)         60.0            estimate D2E/DX2                !
 ! D37   D(11,14,17,18)         60.0            estimate D2E/DX2                !
 ! D38   D(11,14,17,19)        -60.0            estimate D2E/DX2                !
 ! D39   D(11,14,17,20)        180.0            estimate D2E/DX2                !
 ! D40   D(15,14,17,18)       -180.0            estimate D2E/DX2                !
 ! D41   D(15,14,17,19)         60.0            estimate D2E/DX2                !
 ! D42   D(15,14,17,20)        -60.0            estimate D2E/DX2                !
 ! D43   D(16,14,17,18)        -60.0            estimate D2E/DX2                !
 ! D44   D(16,14,17,19)       -180.0            estimate D2E/DX2                !
 ! D45   D(16,14,17,20)         60.0            estimate D2E/DX2                !
 ! D46   D(14,17,20,21)         60.0            estimate D2E/DX2                !
 ! D47   D(14,17,20,22)        -60.0            estimate D2E/DX2                !
 ! D48   D(14,17,20,23)        180.0            estimate D2E/DX2                !
 ! D49   D(18,17,20,21)        180.0            estimate D2E/DX2                !
 ! D50   D(18,17,20,22)         60.0            estimate D2E/DX2                !
 ! D51   D(18,17,20,23)        -60.0            estimate D2E/DX2                !
 ! D52   D(19,17,20,21)        -60.0            estimate D2E/DX2                !
 ! D53   D(19,17,20,22)        180.0            estimate D2E/DX2                !
 ! D54   D(19,17,20,23)         60.0            estimate D2E/DX2                !
 ! D55   D(17,20,23,24)         60.0            estimate D2E/DX2                !
 ! D56   D(17,20,23,25)        -60.0            estimate D2E/DX2                !
 ! D57   D(17,20,23,26)        180.0            estimate D2E/DX2                !
 ! D58   D(21,20,23,24)        180.0            estimate D2E/DX2                !
 ! D59   D(21,20,23,25)         60.0            estimate D2E/DX2                !
 ! D60   D(21,20,23,26)        -60.0            estimate D2E/DX2                !
 ! D61   D(22,20,23,24)        -60.0            estimate D2E/DX2                !
 ! D62   D(22,20,23,25)        180.0            estimate D2E/DX2                !
 ! D63   D(22,20,23,26)         60.0            estimate D2E/DX2                !
 ! D64   D(20,23,26,27)         60.0            estimate D2E/DX2                !
 ! D65   D(20,23,26,28)        -60.0            estimate D2E/DX2                !
 ! D66   D(20,23,26,29)        180.0            estimate D2E/DX2                !
 ! D67   D(24,23,26,27)        180.0            estimate D2E/DX2                !
 ! D68   D(24,23,26,28)         60.0            estimate D2E/DX2                !
 ! D69   D(24,23,26,29)        -60.0            estimate D2E/DX2                !
 ! D70   D(25,23,26,27)        -60.0            estimate D2E/DX2                !
 ! D71   D(25,23,26,28)        180.0            estimate D2E/DX2                !
 ! D72   D(25,23,26,29)         60.0            estimate D2E/DX2                !
 ! D73   D(23,26,29,30)         60.0            estimate D2E/DX2                !
 ! D74   D(23,26,29,31)        -60.0            estimate D2E/DX2                !
 ! D75   D(23,26,29,32)        180.0            estimate D2E/DX2                !
 ! D76   D(27,26,29,30)        180.0            estimate D2E/DX2                !
 ! D77   D(27,26,29,31)         60.0            estimate D2E/DX2                !
 ! D78   D(27,26,29,32)        -60.0            estimate D2E/DX2                !
 ! D79   D(28,26,29,30)        -60.0            estimate D2E/DX2                !
 ! D80   D(28,26,29,31)        180.0            estimate D2E/DX2                !
 ! D81   D(28,26,29,32)         60.0            estimate D2E/DX2                !
 ! D82   D(26,29,32,33)         60.0            estimate D2E/DX2                !
 ! D83   D(26,29,32,34)        -60.0            estimate D2E/DX2                !
 ! D84   D(26,29,32,35)        180.0            estimate D2E/DX2                !
 ! D85   D(30,29,32,33)        180.0            estimate D2E/DX2                !
 ! D86   D(30,29,32,34)         60.0            estimate D2E/DX2                !
 ! D87   D(30,29,32,35)        -60.0            estimate D2E/DX2                !
 ! D88   D(31,29,32,33)        -60.0            estimate D2E/DX2                !
 ! D89   D(31,29,32,34)        180.0            estimate D2E/DX2                !
 ! D90   D(31,29,32,35)         60.0            estimate D2E/DX2                !
 ! D91   D(29,32,35,36)         60.0            estimate D2E/DX2                !
 ! D92   D(29,32,35,37)       -180.0            estimate D2E/DX2                !
 ! D93   D(29,32,35,38)        -60.0            estimate D2E/DX2                !
 ! D94   D(33,32,35,36)        180.0            estimate D2E/DX2                !
 ! D95   D(33,32,35,37)        -60.0            estimate D2E/DX2                !
 ! D96   D(33,32,35,38)         60.0            estimate D2E/DX2                !
 ! D97   D(34,32,35,36)        -60.0            estimate D2E/DX2                !
 ! D98   D(34,32,35,37)         60.0            estimate D2E/DX2                !
 ! D99   D(34,32,35,38)        180.0            estimate D2E/DX2                !
 --------------------------------------------------------------------------------
 Trust Radius=3.00D-01 FncErr=1.00D-07 GrdErr=1.00D-06 EigMax=2.50D+02 EigMin=1.00D-04
 Number of steps in this run=    218 maximum allowed number of steps=    228.
 GradGradGradGradGradGradGradGradGradGradGradGradGradGradGradGradGradGrad

                          Input orientation:                          
 ---------------------------------------------------------------------
 Center     Atomic      Atomic             Coordinates (Angstroms)
 Number     Number       Type             X           Y           Z
 ---------------------------------------------------------------------
      1          6           0       -8.805032   -3.553701    0.000139
      2          1           0       -8.449958   -4.563067    0.001373
      3          1           0       -8.446780   -3.050652   -0.873645
      4          1           0       -9.875030   -3.552012   -0.000829
      5          6           0       -8.291690   -2.827411    1.257351
      6          1           0       -8.646763   -1.818044    1.256117
      7          1           0       -8.649941   -3.330460    2.131135
      8          6           0       -6.751692   -2.829841    1.258745
      9          1           0       -6.393440   -2.326792    0.384961
     10          1           0       -6.396619   -3.839208    1.259979
     11          6           0       -6.238350   -2.103551    2.515957
     12          1           0       -6.596601   -2.606600    3.389741
     13          1           0       -6.593423   -1.094184    2.514723
     14          6           0       -4.698352   -2.105981    2.517351
     15          1           0       -4.340101   -1.602932    1.643567
     16          1           0       -4.343279   -3.115348    2.518585
     17          6           0       -4.185010   -1.379691    3.774563
     18          1           0       -4.543261   -1.882740    4.648347
     19          1           0       -4.540083   -0.370324    3.773329
     20          6           0       -2.645012   -1.382121    3.775957
     21          1           0       -2.286761   -0.879072    2.902173
     22          1           0       -2.289939   -2.391488    3.777191
     23          6           0       -2.131670   -0.655831    5.033169
     24          1           0       -2.489922   -1.158880    5.906953
     25          1           0       -2.486743    0.353535    5.031935
     26          6           0       -0.591672   -0.658261    5.034563
     27          1           0       -0.233421   -0.155213    4.160779
     28          1           0       -0.236599   -1.667628    5.035797
     29          6           0       -0.078330    0.068029    6.291775
     30          1           0       -0.436582   -0.435020    7.165559
     31          1           0       -0.433403    1.077395    6.290541
     32          6           0        1.461667    0.065599    6.293169
     33          1           0        1.819919    0.568647    5.419385
     34          1           0        1.816741   -0.943768    6.294403
     35          6           0        1.975010    0.791888    7.550381
     36          1           0        1.616758    0.288840    8.424164
     37          1           0        3.045008    0.790200    7.551349
     38          1           0        1.619936    1.801255    7.549147
 ---------------------------------------------------------------------
                    Distance matrix (angstroms):
                    1          2          3          4          5
     1  C    0.000000
     2  H    1.070000   0.000000
     3  H    1.070000   1.747303   0.000000
     4  H    1.070000   1.747303   1.747303   0.000000
     5  C    1.540000   2.148263   2.148263   2.148263   0.000000
     6  H    2.148263   3.024610   2.468846   2.468846   1.070000
     7  H    2.148263   2.468846   3.024610   2.468846   1.070000
     8  C    2.514809   2.732978   2.732978   3.444314   1.540000
     9  H    2.732978   3.062243   2.514809   3.710993   2.148263
    10  H    2.732978   2.514809   3.062243   3.710993   2.148263
    11  C    3.875582   4.154945   4.154945   4.653783   2.514809
    12  H    4.154945   4.329403   4.668704   4.810184   2.732978
    13  H    4.154945   4.668704   4.329403   4.810184   2.732978
    14  C    5.029619   5.142175   5.142175   5.935506   3.875582
    15  H    5.142175   5.324484   5.029619   6.094128   4.154945
    16  H    5.142175   5.029619   5.324484   6.094128   4.154945
    17  C    6.349583   6.523851   6.523851   7.165815   5.029619
    18  H    6.523851   6.636324   6.862497   7.268361   5.142175
    19  H    6.523851   6.862497   6.636324   7.268361   5.142175
    20  C    7.544428   7.619928   7.619928   8.440717   6.349583
    21  H    7.619928   7.744125   7.544428   8.553003   6.523851
    22  H    7.619928   7.544428   7.744125   8.553003   6.523851
    23  C    8.846626   8.972527   8.972527   9.679289   7.544428
    24  H    8.972527   9.054634   9.221685   9.755450   7.619928
    25  H    8.972527   9.221685   9.054634   9.755450   7.619928
    26  C   10.059238  10.115986  10.115986  10.950329   8.846626
    27  H   10.115986  10.209865  10.059238  11.037113   8.972527
    28  H   10.115986  10.059238  10.209865  11.037113   8.972527
    29  C   11.351517  11.449907  11.449907  12.193314  10.059238
    30  H   11.449907  11.514362  11.646184  12.253859  10.115986
    31  H   11.449907  11.646184  11.514362  12.253859  10.115986
    32  C   12.574047  12.619492  12.619492  13.461881  11.351517
    33  H   12.619492  12.694870  12.574047  13.532568  11.449907
    34  H   12.619492  12.574047  12.694870  13.532568  11.449907
    35  C   13.860000  13.940697  13.940697  14.707607  12.574047
    36  H   13.940697  13.993684  14.102350  14.757841  12.619492
    37  H   14.707607  14.757841  14.757841  15.582606  13.461881
    38  H   13.940697  14.102350  13.993684  14.757841  12.619492
                    6          7          8          9         10
     6  H    0.000000
     7  H    1.747303   0.000000
     8  C    2.148263   2.148263   0.000000
     9  H    2.468846   3.024610   1.070000   0.000000
    10  H    3.024610   2.468846   1.070000   1.747303   0.000000
    11  C    2.732978   2.732978   1.540000   2.148263   2.148263
    12  H    3.062243   2.514809   2.148263   3.024610   2.468846
    13  H    2.514809   3.062243   2.148263   2.468846   3.024610
    14  C    4.154945   4.154945   2.514809   2.732978   2.732978
    15  H    4.329403   4.668704   2.732978   2.514809   3.062243
    16  H    4.668704   4.329403   2.732978   3.062243   2.514809
    17  C    5.142175   5.142175   3.875582   4.154945   4.154945
    18  H    5.324484   5.029619   4.154945   4.668704   4.329403
    19  H    5.029619   5.324484   4.154945   4.329403   4.668704
    20  C    6.523851   6.523851   5.029619   5.142175   5.142175
    21  H    6.636324   6.862497   5.142175   5.029619   5.324484
    22  H    6.862497   6.636324   5.142175   5.324484   5.029619
    23  C    7.619928   7.619928   6.349583   6.523851   6.523851
    24  H    7.744125   7.544428   6.523851   6.862497   6.636324
    25  H    7.544428   7.744125   6.523851   6.636324   6.862497
    26  C    8.972527   8.972527   7.544428   7.619928   7.619928
    27  H    9.054634   9.221685   7.619928   7.544428   7.744125
    28  H    9.221685   9.054634   7.619928   7.744125   7.544428
    29  C   10.115986  10.115986   8.846626   8.972527   8.972527
    30  H   10.209865  10.059238   8.972527   9.221685   9.054634
    31  H   10.059238  10.209865   8.972527   9.054634   9.221685
    32  C   11.449907  11.449907  10.059238  10.115986  10.115986
    33  H   11.514362  11.646184  10.115986  10.059238  10.209865
    34  H   11.646184  11.514362  10.115986  10.209865  10.059238
    35  C   12.619492  12.619492  11.351517  11.449907  11.449907
    36  H   12.694870  12.574047  11.449907  11.646184  11.514362
    37  H   13.532568  13.532568  12.193314  12.253859  12.253859
    38  H   12.574047  12.694870  11.449907  11.514362  11.646184
                   11         12         13         14         15
    11  C    0.000000
    12  H    1.070000   0.000000
    13  H    1.070000   1.747303   0.000000
    14  C    1.540000   2.148263   2.148263   0.000000
    15  H    2.148263   3.024610   2.468846   1.070000   0.000000
    16  H    2.148263   2.468846   3.024610   1.070000   1.747303
    17  C    2.514809   2.732978   2.732978   1.540000   2.148263
    18  H    2.732978   2.514809   3.062243   2.148263   3.024610
    19  H    2.732978   3.062243   2.514809   2.148263   2.468846
    20  C    3.875582   4.154945   4.154945   2.514809   2.732978
    21  H    4.154945   4.668704   4.329403   2.732978   2.514809
    22  H    4.154945   4.329403   4.668704   2.732978   3.062243
    23  C    5.029619   5.142175   5.142175   3.875582   4.154945
    24  H    5.142175   5.029619   5.324484   4.154945   4.668704
    25  H    5.142175   5.324484   5.029619   4.154945   4.329403
    26  C    6.349583   6.523851   6.523851   5.029619   5.142175
    27  H    6.523851   6.862497   6.636324   5.142175   5.029619
    28  H    6.523851   6.636324   6.862497   5.142175   5.324484
    29  C    7.544428   7.619928   7.619928   6.349583   6.523851
    30  H    7.619928   7.544428   7.744125   6.523851   6.862497
    31  H    7.619928   7.744125   7.544428   6.523851   6.636324
    32  C    8.846626   8.972527   8.972527   7.544428   7.619928
    33  H    8.972527   9.221685   9.054634   7.619928   7.544428
    34  H    8.972527   9.054634   9.221685   7.619928   7.744125
    35  C   10.059238  10.115986  10.115986   8.846626   8.972527
    36  H   10.115986  10.059238  10.209865   8.972527   9.221685
    37  H   10.950329  11.037113  11.037113   9.679289   9.755450
    38  H   10.115986  10.209865  10.059238   8.972527   9.054634
                   16         17         18         19         20
    16  H    0.000000
    17  C    2.148263   0.000000
    18  H    2.468846   1.070000   0.000000
    19  H    3.024610   1.070000   1.747303   0.000000
    20  C    2.732978   1.540000   2.148263   2.148263   0.000000
    21  H    3.062243   2.148263   3.024610   2.468846   1.070000
    22  H    2.514809   2.148263   2.468846   3.024610   1.070000
    23  C    4.154945   2.514809   2.732978   2.732978   1.540000
    24  H    4.329403   2.732978   2.514809   3.062243   2.148263
    25  H    4.668704   2.732978   3.062243   2.514809   2.148263
    26  C    5.142175   3.875582   4.154945   4.154945   2.514809
    27  H    5.324484   4.154945   4.668704   4.329403   2.732978
    28  H    5.029619   4.154945   4.329403   4.668704   2.732978
    29  C    6.523851   5.029619   5.142175   5.142175   3.875582
    30  H    6.636324   5.142175   5.029619   5.324484   4.154945
    31  H    6.862497   5.142175   5.324484   5.029619   4.154945
    32  C    7.619928   6.349583   6.523851   6.523851   5.029619
    33  H    7.744125   6.523851   6.862497   6.636324   5.142175
    34  H    7.544428   6.523851   6.636324   6.862497   5.142175
    35  C    8.972527   7.544428   7.619928   7.619928   6.349583
    36  H    9.054634   7.619928   7.544428   7.744125   6.523851
    37  H    9.755450   8.440717   8.553003   8.553003   7.165815
    38  H    9.221685   7.619928   7.744125   7.544428   6.523851
                   21         22         23         24         25
    21  H    0.000000
    22  H    1.747303   0.000000
    23  C    2.148263   2.148263   0.000000
    24  H    3.024610   2.468846   1.070000   0.000000
    25  H    2.468846   3.024610   1.070000   1.747303   0.000000
    26  C    2.732978   2.732978   1.540000   2.148263   2.148263
    27  H    2.514809   3.062243   2.148263   3.024610   2.468846
    28  H    3.062243   2.514809   2.148263   2.468846   3.024610
    29  C    4.154945   4.154945   2.514809   2.732978   2.732978
    30  H    4.668704   4.329403   2.732978   2.514809   3.062243
    31  H    4.329403   4.668704   2.732978   3.062243   2.514809
    32  C    5.142175   5.142175   3.875582   4.154945   4.154945
    33  H    5.029619   5.324484   4.154945   4.668704   4.329403
    34  H    5.324484   5.029619   4.154945   4.329403   4.668704
    35  C    6.523851   6.523851   5.029619   5.142175   5.142175
    36  H    6.862497   6.636324   5.142175   5.029619   5.324484
    37  H    7.268361   7.268361   5.935506   6.094128   6.094128
    38  H    6.636324   6.862497   5.142175   5.324484   5.029619
                   26         27         28         29         30
    26  C    0.000000
    27  H    1.070000   0.000000
    28  H    1.070000   1.747303   0.000000
    29  C    1.540000   2.148263   2.148263   0.000000
    30  H    2.148263   3.024610   2.468846   1.070000   0.000000
    31  H    2.148263   2.468846   3.024610   1.070000   1.747303
    32  C    2.514809   2.732978   2.732978   1.540000   2.148263
    33  H    2.732978   2.514809   3.062243   2.148263   3.024610
    34  H    2.732978   3.062243   2.514809   2.148263   2.468846
    35  C    3.875582   4.154945   4.154945   2.514809   2.732978
    36  H    4.154945   4.668704   4.329403   2.732978   2.514809
    37  H    4.653783   4.810184   4.810184   3.444314   3.710993
    38  H    4.154945   4.329403   4.668704   2.732978   3.062243
                   31         32         33         34         35
    31  H    0.000000
    32  C    2.148263   0.000000
    33  H    2.468846   1.070000   0.000000
    34  H    3.024610   1.070000   1.747303   0.000000
    35  C    2.732978   1.540000   2.148263   2.148263   0.000000
    36  H    3.062243   2.148263   3.024610   2.468846   1.070000
    37  H    3.710993   2.148263   2.468846   2.468846   1.070000
    38  H    2.514809   2.148263   2.468846   3.024610   1.070000
                   36         37         38
    36  H    0.000000
    37  H    1.747303   0.000000
    38  H    1.747303   1.747303   0.000000
 Stoichiometry    C12H26
 Framework group  C2H[SGH(C12H2),X(H24)]
 Deg. of freedom    31
 Full point group                 C2H     NOp   4
 Largest Abelian subgroup         C2H     NOp   4
 Largest concise Abelian subgroup C2H     NOp   4
                         Standard orientation:                         
 ---------------------------------------------------------------------
 Center     Atomic      Atomic             Coordinates (Angstroms)
 Number     Number       Type             X           Y           Z
 ---------------------------------------------------------------------
      1          6           0        0.444560   -6.915726    0.000000
      2          1           0        1.062325   -6.915726    0.873651
      3          1           0        1.062325   -6.915726   -0.873651
      4          1           0       -0.173205   -7.789377    0.000000
      5          6           0       -0.444560   -5.658321    0.000000
      6          1           0       -1.062324   -5.658321   -0.873651
      7          1           0       -1.062324   -5.658321    0.873651
      8          6           0        0.444560   -4.400917    0.000000
      9          1           0        1.062325   -4.400917   -0.873651
     10          1           0        1.062325   -4.400917    0.873651
     11          6           0       -0.444560   -3.143512    0.000000
     12          1           0       -1.062324   -3.143512    0.873651
     13          1           0       -1.062324   -3.143512   -0.873651
     14          6           0        0.444560   -1.886107    0.000000
     15          1           0        1.062324   -1.886107   -0.873651
     16          1           0        1.062324   -1.886107    0.873651
     17          6           0       -0.444560   -0.628702    0.000000
     18          1           0       -1.062324   -0.628702    0.873651
     19          1           0       -1.062324   -0.628702   -0.873651
     20          6           0        0.444560    0.628702    0.000000
     21          1           0        1.062324    0.628702   -0.873651
     22          1           0        1.062324    0.628702    0.873651
     23          6           0       -0.444560    1.886107    0.000000
     24          1           0       -1.062324    1.886107    0.873651
     25          1           0       -1.062324    1.886107   -0.873651
     26          6           0        0.444560    3.143512    0.000000
     27          1           0        1.062324    3.143512   -0.873651
     28          1           0        1.062324    3.143512    0.873651
     29          6           0       -0.444560    4.400917    0.000000
     30          1           0       -1.062325    4.400917    0.873651
     31          1           0       -1.062325    4.400917   -0.873651
     32          6           0        0.444560    5.658321    0.000000
     33          1           0        1.062324    5.658321   -0.873651
     34          1           0        1.062324    5.658321    0.873651
     35          6           0       -0.444560    6.915726    0.000000
     36          1           0       -1.062325    6.915726    0.873651
     37          1           0        0.173205    7.789377    0.000000
     38          1           0       -1.062325    6.915726   -0.873651
 ---------------------------------------------------------------------
 Rotational constants (GHZ):           6.8864308           0.1526601           0.1509969
 Standard basis: 6-31G (6D, 7F)
 There are    56 symmetry adapted cartesian basis functions of AG  symmetry.
 There are    24 symmetry adapted cartesian basis functions of BG  symmetry.
 There are    24 symmetry adapted cartesian basis functions of AU  symmetry.
 There are    56 symmetry adapted cartesian basis functions of BU  symmetry.
 There are    56 symmetry adapted basis functions of AG  symmetry.
 There are    24 symmetry adapted basis functions of BG  symmetry.
 There are    24 symmetry adapted basis functions of AU  symmetry.
 There are    56 symmetry adapted basis functions of BU  symmetry.
   160 basis functions,   368 primitive gaussians,   160 cartesian basis functions
    49 alpha electrons       49 beta electrons
       nuclear repulsion energy       678.8760310759 Hartrees.
 NAtoms=   38 NActive=   38 NUniq=   13 SFac= 4.00D+00 NAtFMM=   60 NAOKFM=F Big=F
 Integral buffers will be    131072 words long.
 Raffenetti 2 integral format.
 Two-electron integral symmetry is turned on.
 One-electron integrals computed using PRISM.
 NBasis=   160 RedAO= T EigKep=  3.12D-03  NBF=    56    24    24    56
 NBsUse=   160 1.00D-06 EigRej= -1.00D+00 NBFU=    56    24    24    56
 ExpMin= 1.61D-01 ExpMax= 3.05D+03 ExpMxC= 4.57D+02 IAcc=3 IRadAn=         5 AccDes= 0.00D+00
 Harris functional with IExCor=  402 and IRadAn=       5 diagonalized for initial guess.
 HarFok:  IExCor=  402 AccDes= 0.00D+00 IRadAn=         5 IDoV= 1 UseB2=F ITyADJ=14
 ICtDFT=  3500011 ScaDFX=  1.000000  1.000000  1.000000  1.000000
 FoFCou: FMM=F IPFlag=           0 FMFlag=      100000 FMFlg1=           0
         NFxFlg=           0 DoJE=T BraDBF=F KetDBF=T FulRan=T
         wScrn=  0.000000 ICntrl=       500 IOpCl=  0 I1Cent=   200000004 NGrid=           0
         NMat0=    1 NMatS0=      1 NMatT0=    0 NMatD0=    1 NMtDS0=    0 NMtDT0=    0
 Petite list used in FoFCou.
 Initial guess orbital symmetries:
       Occupied  (BU) (AG) (BU) (AG) (AG) (BU) (BU) (BU) (AG) (AG)
                 (BU) (AG) (AG) (BU) (AG) (BU) (AG) (BU) (AG) (BU)
                 (AG) (BU) (AG) (BU) (AU) (BG) (AU) (BG) (BU) (AG)
                 (AG) (AU) (BU) (BU) (BG) (AG) (AG) (AU) (BU) (BG)
                 (AG) (BU) (AU) (BU) (AG) (BG) (AU) (BG) (AG)
       Virtual   (AG) (BU) (AG) (BU) (AU) (AG) (BU) (BG) (BU) (AG)
                 (AU) (BU) (AG) (BU) (AG) (BU) (AG) (BG) (BU) (BU)
                 (AG) (AU) (BG) (BG) (AU) (AG) (BU) (AU) (BG) (AG)
                 (BU) (AU) (BG) (BU) (AG) (BU) (AG) (AG) (BU) (AG)
                 (BU) (AG) (BU) (AG) (BG) (AU) (BU) (BG) (AU) (AU)
                 (AG) (BG) (BU) (AG) (BU) (AG) (AU) (BU) (AG) (BU)
                 (BG) (BU) (AG) (AU) (AG) (BG) (BG) (AU) (BU) (BU)
                 (AU) (AG) (BG) (AG) (AU) (BU) (BG) (BU) (AG) (AG)
                 (BU) (AU) (AG) (BU) (AG) (BG) (AG) (BU) (BU) (BU)
                 (AG) (AU) (AG) (BG) (BU) (AU) (AG) (BU) (BG) (AG)
                 (BU) (AU) (AG) (BU) (AG) (BU) (BG) (AG) (BU) (AG)
                 (BU)
 The electronic state of the initial guess is 1-AG.
 Keep R1 ints in memory in symmetry-blocked form, NReq=104296097.
 Requested convergence on RMS density matrix=1.00D-08 within 128 cycles.
 Requested convergence on MAX density matrix=1.00D-06.
 Requested convergence on             energy=1.00D-06.
 No special actions if energy rises.
 Integral accuracy reduced to 1.0D-05 until final iterations.
 Initial convergence to 1.0D-05 achieved.  Increase integral accuracy.
 SCF Done:  E(RB3LYP) =  -472.830005423     A.U. after   11 cycles
            NFock= 11  Conv=0.46D-08     -V/T= 2.0036

 **********************************************************************

            Population analysis using the SCF Density.

 **********************************************************************

 Orbital symmetries:
       Occupied  (BU) (AG) (BU) (AG) (BU) (AG) (AG) (BU) (AG) (BU)
                 (BU) (AG) (AG) (BU) (AG) (BU) (AG) (BU) (AG) (BU)
                 (BU) (AG) (AG) (BU) (AU) (BG) (AU) (BG) (BU) (AG)
                 (AU) (AG) (BU) (BG) (BU) (AU) (AG) (AG) (BG) (BU)
                 (AU) (AG) (BG) (BG) (AU) (BU) (AG) (BU) (AG)
       Virtual   (AG) (BU) (AG) (BU) (AU) (BU) (BG) (AG) (AG) (AU)
                 (BU) (BU) (AG) (BG) (BU) (AG) (AU) (BG) (BG) (AU)
                 (AG) (BU) (BG) (AU) (BU) (AG) (BU) (AU) (BG) (AG)
                 (AG) (BU) (BU) (AG) (BU) (AG) (BU) (AG) (BU) (BU)
                 (AG) (AG) (BG) (AU) (BG) (AU) (AG) (BU) (AU) (BU)
                 (BG) (BU) (AG) (AG) (AU) (BU) (AG) (BU) (BU) (BG)
                 (AG) (BU) (AG) (AU) (AG) (BU) (BG) (BG) (AU) (BU)
                 (AU) (AG) (BG) (AG) (AU) (BU) (BG) (BU) (AG) (AG)
                 (BU) (AU) (AG) (BG) (BU) (AG) (BU) (AG) (BU) (BU)
                 (AG) (AU) (AG) (BG) (BU) (AU) (AG) (BG) (BU) (AG)
                 (BU) (AU) (AG) (BU) (AG) (BU) (BG) (AG) (BU) (AG)
                 (BU)
 The electronic state is 1-AG.
 Alpha  occ. eigenvalues --  -10.16087 -10.16087 -10.15827 -10.15827 -10.15773
 Alpha  occ. eigenvalues --  -10.15773 -10.15754 -10.15753 -10.15740 -10.15729
 Alpha  occ. eigenvalues --  -10.15249 -10.15249  -0.81393  -0.80233  -0.78282
 Alpha  occ. eigenvalues --   -0.75622  -0.72333  -0.68534  -0.64451  -0.60596
 Alpha  occ. eigenvalues --   -0.58390  -0.58145  -0.57567  -0.57244  -0.49305
 Alpha  occ. eigenvalues --   -0.48233  -0.46480  -0.44198  -0.42877  -0.42635
 Alpha  occ. eigenvalues --   -0.41577  -0.41079  -0.39564  -0.38873  -0.38657
 Alpha  occ. eigenvalues --   -0.36394  -0.36197  -0.34936  -0.34451  -0.34204
 Alpha  occ. eigenvalues --   -0.33245  -0.32925  -0.32794  -0.32669  -0.32644
 Alpha  occ. eigenvalues --   -0.32303  -0.32054  -0.30079  -0.26239
 Alpha virt. eigenvalues --    0.08866   0.09551   0.10475   0.11622   0.11906
 Alpha virt. eigenvalues --    0.13076   0.13399   0.13488   0.14602   0.15814
 Alpha virt. eigenvalues --    0.16127   0.17138   0.18241   0.18668   0.18939
 Alpha virt. eigenvalues --    0.19420   0.20056   0.20369   0.20683   0.20843
 Alpha virt. eigenvalues --    0.21409   0.21971   0.22061   0.22120   0.22232
 Alpha virt. eigenvalues --    0.22669   0.23114   0.23903   0.24095   0.24900
 Alpha virt. eigenvalues --    0.25592   0.25669   0.27687   0.28388   0.28562
 Alpha virt. eigenvalues --    0.34594   0.34838   0.47941   0.51863   0.54407
 Alpha virt. eigenvalues --    0.54883   0.56406   0.57344   0.57449   0.59384
 Alpha virt. eigenvalues --    0.59395   0.59425   0.59628   0.60036   0.61367
 Alpha virt. eigenvalues --    0.62022   0.65451   0.65788   0.66834   0.67073
 Alpha virt. eigenvalues --    0.69625   0.69631   0.72120   0.73501   0.73787
 Alpha virt. eigenvalues --    0.73838   0.77264   0.78035   0.80505   0.81673
 Alpha virt. eigenvalues --    0.82860   0.84022   0.85203   0.85570   0.88005
 Alpha virt. eigenvalues --    0.89900   0.90324   0.91280   0.91568   0.93634
 Alpha virt. eigenvalues --    0.96564   0.96772   0.96896   0.97387   0.99082
 Alpha virt. eigenvalues --    0.99776   1.00087   1.01836   1.02819   1.02912
 Alpha virt. eigenvalues --    1.03189   1.03579   1.03616   1.04266   1.04907
 Alpha virt. eigenvalues --    1.05163   1.05358   1.05561   1.07417   1.07713
 Alpha virt. eigenvalues --    1.11403   1.20274   1.22962   1.23597   1.32354
 Alpha virt. eigenvalues --    1.38667   1.40530   1.43586   1.47375   1.50103
 Alpha virt. eigenvalues --    1.51635   1.55271   1.55743   1.68500   1.89732
 Alpha virt. eigenvalues --    2.07900
          Condensed to atoms (all electrons):
               1          2          3          4          5          6
     1  C    5.081583   0.382025   0.382025   0.369182   0.326737  -0.041918
     2  H    0.382025   0.593002  -0.034038  -0.032646  -0.039247   0.005729
     3  H    0.382025  -0.034038   0.593002  -0.032646  -0.039247  -0.005145
     4  H    0.369182  -0.032646  -0.032646   0.602178  -0.032720  -0.002703
     5  C    0.326737  -0.039247  -0.039247  -0.032720   5.057532   0.383629
     6  H   -0.041918   0.005729  -0.005145  -0.002703   0.383629   0.619842
     7  H   -0.041918  -0.005145   0.005729  -0.002703   0.383629  -0.040470
     8  C   -0.053298  -0.005314  -0.005314   0.005311   0.335313  -0.043026
     9  H   -0.003065  -0.000617   0.005532   0.000011  -0.043919  -0.006117
    10  H   -0.003065   0.005532  -0.000617   0.000011  -0.043919   0.006194
    11  C    0.005439   0.000084   0.000084  -0.000233  -0.045536  -0.003567
    12  H    0.000061   0.000002   0.000008   0.000003  -0.003542  -0.000621
    13  H    0.000061   0.000008   0.000002   0.000003  -0.003542   0.005302
    14  C   -0.000231   0.000001   0.000001   0.000003   0.005246   0.000064
    15  H    0.000002   0.000001  -0.000003   0.000000   0.000056   0.000005
    16  H    0.000002  -0.000003   0.000001   0.000000   0.000056   0.000005
    17  C    0.000002   0.000000   0.000000   0.000000  -0.000217   0.000002
    18  H    0.000000   0.000000   0.000000   0.000000   0.000002   0.000001
    19  H    0.000000   0.000000   0.000000   0.000000   0.000002  -0.000003
    20  C    0.000000   0.000000   0.000000   0.000000   0.000002   0.000000
    21  H    0.000000   0.000000   0.000000   0.000000   0.000000   0.000000
    22  H    0.000000   0.000000   0.000000   0.000000   0.000000   0.000000
    23  C    0.000000   0.000000   0.000000   0.000000   0.000000   0.000000
    24  H    0.000000   0.000000   0.000000   0.000000   0.000000   0.000000
    25  H    0.000000   0.000000   0.000000   0.000000   0.000000   0.000000
    26  C    0.000000   0.000000   0.000000   0.000000   0.000000   0.000000
    27  H    0.000000   0.000000   0.000000   0.000000   0.000000   0.000000
    28  H    0.000000   0.000000   0.000000   0.000000   0.000000   0.000000
    29  C    0.000000   0.000000   0.000000   0.000000   0.000000   0.000000
    30  H    0.000000   0.000000   0.000000   0.000000   0.000000   0.000000
    31  H    0.000000   0.000000   0.000000   0.000000   0.000000   0.000000
    32  C    0.000000   0.000000   0.000000   0.000000   0.000000   0.000000
    33  H    0.000000   0.000000   0.000000   0.000000   0.000000   0.000000
    34  H    0.000000   0.000000   0.000000   0.000000   0.000000   0.000000
    35  C    0.000000   0.000000   0.000000   0.000000   0.000000   0.000000
    36  H    0.000000   0.000000   0.000000   0.000000   0.000000   0.000000
    37  H    0.000000   0.000000   0.000000   0.000000   0.000000   0.000000
    38  H    0.000000   0.000000   0.000000   0.000000   0.000000   0.000000
               7          8          9         10         11         12
     1  C   -0.041918  -0.053298  -0.003065  -0.003065   0.005439   0.000061
     2  H   -0.005145  -0.005314  -0.000617   0.005532   0.000084   0.000002
     3  H    0.005729  -0.005314   0.005532  -0.000617   0.000084   0.000008
     4  H   -0.002703   0.005311   0.000011   0.000011  -0.000233   0.000003
     5  C    0.383629   0.335313  -0.043919  -0.043919  -0.045536  -0.003542
     6  H   -0.040470  -0.043026  -0.006117   0.006194  -0.003567  -0.000621
     7  H    0.619842  -0.043026   0.006194  -0.006117  -0.003567   0.005302
     8  C   -0.043026   5.089551   0.381335   0.381335   0.320943  -0.042990
     9  H    0.006194   0.381335   0.624246  -0.041550  -0.042744   0.006167
    10  H   -0.006117   0.381335  -0.041550   0.624246  -0.042744  -0.006075
    11  C   -0.003567   0.320943  -0.042744  -0.042744   5.103161   0.381275
    12  H    0.005302  -0.042990   0.006167  -0.006075   0.381275   0.623927
    13  H   -0.000621  -0.042990  -0.006075   0.006167   0.381275  -0.041379
    14  C    0.000064  -0.045255  -0.003442  -0.003442   0.316459  -0.042927
    15  H    0.000005  -0.003475   0.005215  -0.000607  -0.043092   0.006159
    16  H    0.000005  -0.003475  -0.000607   0.005215  -0.043092  -0.006070
    17  C    0.000002   0.005213   0.000068   0.000068  -0.044848  -0.003425
    18  H   -0.000003   0.000062   0.000004   0.000006  -0.003426   0.005215
    19  H    0.000001   0.000062   0.000006   0.000004  -0.003426  -0.000604
    20  C    0.000000  -0.000219   0.000002   0.000002   0.005172   0.000064
    21  H    0.000000   0.000002  -0.000003   0.000001   0.000063   0.000004
    22  H    0.000000   0.000002   0.000001  -0.000003   0.000063   0.000006
    23  C    0.000000   0.000002   0.000000   0.000000  -0.000217   0.000002
    24  H    0.000000   0.000000   0.000000   0.000000   0.000002  -0.000003
    25  H    0.000000   0.000000   0.000000   0.000000   0.000002   0.000001
    26  C    0.000000   0.000000   0.000000   0.000000   0.000002   0.000000
    27  H    0.000000   0.000000   0.000000   0.000000   0.000000   0.000000
    28  H    0.000000   0.000000   0.000000   0.000000   0.000000   0.000000
    29  C    0.000000   0.000000   0.000000   0.000000   0.000000   0.000000
    30  H    0.000000   0.000000   0.000000   0.000000   0.000000   0.000000
    31  H    0.000000   0.000000   0.000000   0.000000   0.000000   0.000000
    32  C    0.000000   0.000000   0.000000   0.000000   0.000000   0.000000
    33  H    0.000000   0.000000   0.000000   0.000000   0.000000   0.000000
    34  H    0.000000   0.000000   0.000000   0.000000   0.000000   0.000000
    35  C    0.000000   0.000000   0.000000   0.000000   0.000000   0.000000
    36  H    0.000000   0.000000   0.000000   0.000000   0.000000   0.000000
    37  H    0.000000   0.000000   0.000000   0.000000   0.000000   0.000000
    38  H    0.000000   0.000000   0.000000   0.000000   0.000000   0.000000
              13         14         15         16         17         18
     1  C    0.000061  -0.000231   0.000002   0.000002   0.000002   0.000000
     2  H    0.000008   0.000001   0.000001  -0.000003   0.000000   0.000000
     3  H    0.000002   0.000001  -0.000003   0.000001   0.000000   0.000000
     4  H    0.000003   0.000003   0.000000   0.000000   0.000000   0.000000
     5  C   -0.003542   0.005246   0.000056   0.000056  -0.000217   0.000002
     6  H    0.005302   0.000064   0.000005   0.000005   0.000002   0.000001
     7  H   -0.000621   0.000064   0.000005   0.000005   0.000002  -0.000003
     8  C   -0.042990  -0.045255  -0.003475  -0.003475   0.005213   0.000062
     9  H   -0.006075  -0.003442   0.005215  -0.000607   0.000068   0.000004
    10  H    0.006167  -0.003442  -0.000607   0.005215   0.000068   0.000006
    11  C    0.381275   0.316459  -0.043092  -0.043092  -0.044848  -0.003426
    12  H   -0.041379  -0.042927   0.006159  -0.006070  -0.003425   0.005215
    13  H    0.623927  -0.042927  -0.006070   0.006159  -0.003425  -0.000604
    14  C   -0.042927   5.109405   0.381325   0.381325   0.315097  -0.043080
    15  H   -0.006070   0.381325   0.624368  -0.041434  -0.042992   0.006161
    16  H    0.006159   0.381325  -0.041434   0.624368  -0.042992  -0.006069
    17  C   -0.003425   0.315097  -0.042992  -0.042992   5.110394   0.381335
    18  H   -0.000604  -0.043080   0.006161  -0.006069   0.381335   0.624442
    19  H    0.005215  -0.043080  -0.006069   0.006161   0.381335  -0.041425
    20  C    0.000064  -0.044769  -0.003423  -0.003423   0.314659  -0.043052
    21  H    0.000006  -0.003427   0.005214  -0.000602  -0.043052   0.006161
    22  H    0.000004  -0.003427  -0.000602   0.005214  -0.043052  -0.006068
    23  C    0.000002   0.005168   0.000063   0.000063  -0.044769  -0.003427
    24  H    0.000001   0.000063   0.000004   0.000006  -0.003423   0.005214
    25  H   -0.000003   0.000063   0.000006   0.000004  -0.003423  -0.000602
    26  C    0.000000  -0.000217   0.000002   0.000002   0.005172   0.000063
    27  H    0.000000   0.000002  -0.000003   0.000001   0.000064   0.000004
    28  H    0.000000   0.000002   0.000001  -0.000003   0.000064   0.000006
    29  C    0.000000   0.000002   0.000000   0.000000  -0.000219   0.000002
    30  H    0.000000   0.000000   0.000000   0.000000   0.000002  -0.000003
    31  H    0.000000   0.000000   0.000000   0.000000   0.000002   0.000001
    32  C    0.000000   0.000000   0.000000   0.000000   0.000002   0.000000
    33  H    0.000000   0.000000   0.000000   0.000000   0.000000   0.000000
    34  H    0.000000   0.000000   0.000000   0.000000   0.000000   0.000000
    35  C    0.000000   0.000000   0.000000   0.000000   0.000000   0.000000
    36  H    0.000000   0.000000   0.000000   0.000000   0.000000   0.000000
    37  H    0.000000   0.000000   0.000000   0.000000   0.000000   0.000000
    38  H    0.000000   0.000000   0.000000   0.000000   0.000000   0.000000
              19         20         21         22         23         24
     1  C    0.000000   0.000000   0.000000   0.000000   0.000000   0.000000
     2  H    0.000000   0.000000   0.000000   0.000000   0.000000   0.000000
     3  H    0.000000   0.000000   0.000000   0.000000   0.000000   0.000000
     4  H    0.000000   0.000000   0.000000   0.000000   0.000000   0.000000
     5  C    0.000002   0.000002   0.000000   0.000000   0.000000   0.000000
     6  H   -0.000003   0.000000   0.000000   0.000000   0.000000   0.000000
     7  H    0.000001   0.000000   0.000000   0.000000   0.000000   0.000000
     8  C    0.000062  -0.000219   0.000002   0.000002   0.000002   0.000000
     9  H    0.000006   0.000002  -0.000003   0.000001   0.000000   0.000000
    10  H    0.000004   0.000002   0.000001  -0.000003   0.000000   0.000000
    11  C   -0.003426   0.005172   0.000063   0.000063  -0.000217   0.000002
    12  H   -0.000604   0.000064   0.000004   0.000006   0.000002  -0.000003
    13  H    0.005215   0.000064   0.000006   0.000004   0.000002   0.000001
    14  C   -0.043080  -0.044769  -0.003427  -0.003427   0.005168   0.000063
    15  H   -0.006069  -0.003423   0.005214  -0.000602   0.000063   0.000004
    16  H    0.006161  -0.003423  -0.000602   0.005214   0.000063   0.000006
    17  C    0.381335   0.314659  -0.043052  -0.043052  -0.044769  -0.003423
    18  H   -0.041425  -0.043052   0.006161  -0.006068  -0.003427   0.005214
    19  H    0.624442  -0.043052  -0.006068   0.006161  -0.003427  -0.000602
    20  C   -0.043052   5.110394   0.381335   0.381335   0.315097  -0.042992
    21  H   -0.006068   0.381335   0.624442  -0.041425  -0.043080   0.006161
    22  H    0.006161   0.381335  -0.041425   0.624442  -0.043080  -0.006069
    23  C   -0.003427   0.315097  -0.043080  -0.043080   5.109405   0.381325
    24  H   -0.000602  -0.042992   0.006161  -0.006069   0.381325   0.624368
    25  H    0.005214  -0.042992  -0.006069   0.006161   0.381325  -0.041434
    26  C    0.000063  -0.044848  -0.003426  -0.003426   0.316459  -0.043092
    27  H    0.000006  -0.003425   0.005215  -0.000604  -0.042927   0.006159
    28  H    0.000004  -0.003425  -0.000604   0.005215  -0.042927  -0.006070
    29  C    0.000002   0.005213   0.000062   0.000062  -0.045255  -0.003475
    30  H    0.000001   0.000068   0.000004   0.000006  -0.003442   0.005215
    31  H   -0.000003   0.000068   0.000006   0.000004  -0.003442  -0.000607
    32  C    0.000000  -0.000217   0.000002   0.000002   0.005246   0.000056
    33  H    0.000000   0.000002  -0.000003   0.000001   0.000064   0.000005
    34  H    0.000000   0.000002   0.000001  -0.000003   0.000064   0.000005
    35  C    0.000000   0.000002   0.000000   0.000000  -0.000231   0.000002
    36  H    0.000000   0.000000   0.000000   0.000000   0.000001  -0.000003
    37  H    0.000000   0.000000   0.000000   0.000000   0.000003   0.000000
    38  H    0.000000   0.000000   0.000000   0.000000   0.000001   0.000001
              25         26         27         28         29         30
     1  C    0.000000   0.000000   0.000000   0.000000   0.000000   0.000000
     2  H    0.000000   0.000000   0.000000   0.000000   0.000000   0.000000
     3  H    0.000000   0.000000   0.000000   0.000000   0.000000   0.000000
     4  H    0.000000   0.000000   0.000000   0.000000   0.000000   0.000000
     5  C    0.000000   0.000000   0.000000   0.000000   0.000000   0.000000
     6  H    0.000000   0.000000   0.000000   0.000000   0.000000   0.000000
     7  H    0.000000   0.000000   0.000000   0.000000   0.000000   0.000000
     8  C    0.000000   0.000000   0.000000   0.000000   0.000000   0.000000
     9  H    0.000000   0.000000   0.000000   0.000000   0.000000   0.000000
    10  H    0.000000   0.000000   0.000000   0.000000   0.000000   0.000000
    11  C    0.000002   0.000002   0.000000   0.000000   0.000000   0.000000
    12  H    0.000001   0.000000   0.000000   0.000000   0.000000   0.000000
    13  H   -0.000003   0.000000   0.000000   0.000000   0.000000   0.000000
    14  C    0.000063  -0.000217   0.000002   0.000002   0.000002   0.000000
    15  H    0.000006   0.000002  -0.000003   0.000001   0.000000   0.000000
    16  H    0.000004   0.000002   0.000001  -0.000003   0.000000   0.000000
    17  C   -0.003423   0.005172   0.000064   0.000064  -0.000219   0.000002
    18  H   -0.000602   0.000063   0.000004   0.000006   0.000002  -0.000003
    19  H    0.005214   0.000063   0.000006   0.000004   0.000002   0.000001
    20  C   -0.042992  -0.044848  -0.003425  -0.003425   0.005213   0.000068
    21  H   -0.006069  -0.003426   0.005215  -0.000604   0.000062   0.000004
    22  H    0.006161  -0.003426  -0.000604   0.005215   0.000062   0.000006
    23  C    0.381325   0.316459  -0.042927  -0.042927  -0.045255  -0.003442
    24  H   -0.041434  -0.043092   0.006159  -0.006070  -0.003475   0.005215
    25  H    0.624368  -0.043092  -0.006070   0.006159  -0.003475  -0.000607
    26  C   -0.043092   5.103161   0.381275   0.381275   0.320943  -0.042744
    27  H   -0.006070   0.381275   0.623927  -0.041379  -0.042990   0.006167
    28  H    0.006159   0.381275  -0.041379   0.623927  -0.042990  -0.006075
    29  C   -0.003475   0.320943  -0.042990  -0.042990   5.089551   0.381335
    30  H   -0.000607  -0.042744   0.006167  -0.006075   0.381335   0.624246
    31  H    0.005215  -0.042744  -0.006075   0.006167   0.381335  -0.041550
    32  C    0.000056  -0.045536  -0.003542  -0.003542   0.335313  -0.043919
    33  H    0.000005  -0.003567   0.005302  -0.000621  -0.043026   0.006194
    34  H    0.000005  -0.003567  -0.000621   0.005302  -0.043026  -0.006117
    35  C    0.000002   0.005439   0.000061   0.000061  -0.053298  -0.003065
    36  H    0.000001   0.000084   0.000008   0.000002  -0.005314   0.005532
    37  H    0.000000  -0.000233   0.000003   0.000003   0.005311   0.000011
    38  H   -0.000003   0.000084   0.000002   0.000008  -0.005314  -0.000617
              31         32         33         34         35         36
     1  C    0.000000   0.000000   0.000000   0.000000   0.000000   0.000000
     2  H    0.000000   0.000000   0.000000   0.000000   0.000000   0.000000
     3  H    0.000000   0.000000   0.000000   0.000000   0.000000   0.000000
     4  H    0.000000   0.000000   0.000000   0.000000   0.000000   0.000000
     5  C    0.000000   0.000000   0.000000   0.000000   0.000000   0.000000
     6  H    0.000000   0.000000   0.000000   0.000000   0.000000   0.000000
     7  H    0.000000   0.000000   0.000000   0.000000   0.000000   0.000000
     8  C    0.000000   0.000000   0.000000   0.000000   0.000000   0.000000
     9  H    0.000000   0.000000   0.000000   0.000000   0.000000   0.000000
    10  H    0.000000   0.000000   0.000000   0.000000   0.000000   0.000000
    11  C    0.000000   0.000000   0.000000   0.000000   0.000000   0.000000
    12  H    0.000000   0.000000   0.000000   0.000000   0.000000   0.000000
    13  H    0.000000   0.000000   0.000000   0.000000   0.000000   0.000000
    14  C    0.000000   0.000000   0.000000   0.000000   0.000000   0.000000
    15  H    0.000000   0.000000   0.000000   0.000000   0.000000   0.000000
    16  H    0.000000   0.000000   0.000000   0.000000   0.000000   0.000000
    17  C    0.000002   0.000002   0.000000   0.000000   0.000000   0.000000
    18  H    0.000001   0.000000   0.000000   0.000000   0.000000   0.000000
    19  H   -0.000003   0.000000   0.000000   0.000000   0.000000   0.000000
    20  C    0.000068  -0.000217   0.000002   0.000002   0.000002   0.000000
    21  H    0.000006   0.000002  -0.000003   0.000001   0.000000   0.000000
    22  H    0.000004   0.000002   0.000001  -0.000003   0.000000   0.000000
    23  C   -0.003442   0.005246   0.000064   0.000064  -0.000231   0.000001
    24  H   -0.000607   0.000056   0.000005   0.000005   0.000002  -0.000003
    25  H    0.005215   0.000056   0.000005   0.000005   0.000002   0.000001
    26  C   -0.042744  -0.045536  -0.003567  -0.003567   0.005439   0.000084
    27  H   -0.006075  -0.003542   0.005302  -0.000621   0.000061   0.000008
    28  H    0.006167  -0.003542  -0.000621   0.005302   0.000061   0.000002
    29  C    0.381335   0.335313  -0.043026  -0.043026  -0.053298  -0.005314
    30  H   -0.041550  -0.043919   0.006194  -0.006117  -0.003065   0.005532
    31  H    0.624246  -0.043919  -0.006117   0.006194  -0.003065  -0.000617
    32  C   -0.043919   5.057532   0.383629   0.383629   0.326737  -0.039247
    33  H   -0.006117   0.383629   0.619842  -0.040470  -0.041918   0.005729
    34  H    0.006194   0.383629  -0.040470   0.619842  -0.041918  -0.005145
    35  C   -0.003065   0.326737  -0.041918  -0.041918   5.081583   0.382025
    36  H   -0.000617  -0.039247   0.005729  -0.005145   0.382025   0.593002
    37  H    0.000011  -0.032720  -0.002703  -0.002703   0.369182  -0.032646
    38  H    0.005532  -0.039247  -0.005145   0.005729   0.382025  -0.034038
              37         38
     1  C    0.000000   0.000000
     2  H    0.000000   0.000000
     3  H    0.000000   0.000000
     4  H    0.000000   0.000000
     5  C    0.000000   0.000000
     6  H    0.000000   0.000000
     7  H    0.000000   0.000000
     8  C    0.000000   0.000000
     9  H    0.000000   0.000000
    10  H    0.000000   0.000000
    11  C    0.000000   0.000000
    12  H    0.000000   0.000000
    13  H    0.000000   0.000000
    14  C    0.000000   0.000000
    15  H    0.000000   0.000000
    16  H    0.000000   0.000000
    17  C    0.000000   0.000000
    18  H    0.000000   0.000000
    19  H    0.000000   0.000000
    20  C    0.000000   0.000000
    21  H    0.000000   0.000000
    22  H    0.000000   0.000000
    23  C    0.000003   0.000001
    24  H    0.000000   0.000001
    25  H    0.000000  -0.000003
    26  C   -0.000233   0.000084
    27  H    0.000003   0.000002
    28  H    0.000003   0.000008
    29  C    0.005311  -0.005314
    30  H    0.000011  -0.000617
    31  H    0.000011   0.005532
    32  C   -0.032720  -0.039247
    33  H   -0.002703  -0.005145
    34  H   -0.002703   0.005729
    35  C    0.369182   0.382025
    36  H   -0.032646  -0.034038
    37  H    0.602178  -0.032646
    38  H   -0.032646   0.593002
 Mulliken charges:
               1
     1  C   -0.403623
     2  H    0.130628
     3  H    0.130628
     4  H    0.126952
     5  C   -0.240316
     6  H    0.122798
     7  H    0.122798
     8  C   -0.230748
     9  H    0.119359
    10  H    0.119359
    11  C   -0.237532
    12  H    0.119443
    13  H    0.119443
    14  C   -0.238066
    15  H    0.119182
    16  H    0.119182
    17  C   -0.237645
    18  H    0.119079
    19  H    0.119079
    20  C   -0.237645
    21  H    0.119079
    22  H    0.119079
    23  C   -0.238066
    24  H    0.119182
    25  H    0.119182
    26  C   -0.237532
    27  H    0.119443
    28  H    0.119443
    29  C   -0.230748
    30  H    0.119359
    31  H    0.119359
    32  C   -0.240316
    33  H    0.122798
    34  H    0.122798
    35  C   -0.403623
    36  H    0.130628
    37  H    0.126952
    38  H    0.130628
 Sum of Mulliken charges =   0.00000
 Mulliken charges with hydrogens summed into heavy atoms:
               1
     1  C   -0.015415
     5  C    0.005280
     8  C    0.007969
    11  C    0.001354
    14  C    0.000299
    17  C    0.000513
    20  C    0.000513
    23  C    0.000299
    26  C    0.001354
    29  C    0.007969
    32  C    0.005280
    35  C   -0.015415
 Electronic spatial extent (au):  <R**2>=           7288.7500
 Charge=              0.0000 electrons
 Dipole moment (field-independent basis, Debye):
    X=              0.0000    Y=              0.0000    Z=              0.0000  Tot=              0.0000
 Quadrupole moment (field-independent basis, Debye-Ang):
   XX=            -81.8721   YY=            -85.4098   ZZ=            -79.0074
   XY=              0.7718   XZ=              0.0000   YZ=              0.0000
 Traceless Quadrupole moment (field-independent basis, Debye-Ang):
   XX=              0.2243   YY=             -3.3134   ZZ=              3.0891
   XY=              0.7718   XZ=              0.0000   YZ=              0.0000
 Octapole moment (field-independent basis, Debye-Ang**2):
  XXX=              0.0000  YYY=              0.0000  ZZZ=              0.0000  XYY=              0.0000
  XXY=              0.0000  XXZ=              0.0000  XZZ=              0.0000  YZZ=              0.0000
  YYZ=              0.0000  XYZ=              0.0000
 Hexadecapole moment (field-independent basis, Debye-Ang**3):
 XXXX=           -290.3202 YYYY=         -10048.0200 ZZZZ=           -161.5433 XXXY=             84.5148
 XXXZ=              0.0000 YYYX=            163.7078 YYYZ=              0.0000 ZZZX=              0.0000
 ZZZY=              0.0000 XXYY=          -1671.2206 XXZZ=            -69.4431 YYZZ=          -1606.4345
 XXYZ=              0.0000 YYXZ=              0.0000 ZZXY=             24.4382
 N-N= 6.788760310759D+02 E-N=-2.452084844990D+03  KE= 4.711522144264D+02
 Symmetry AG   KE= 2.250736620157D+02
 Symmetry BG   KE= 1.211945507774D+01
 Symmetry AU   KE= 1.192491824525D+01
 Symmetry BU   KE= 2.220341790877D+02
 Calling FoFJK, ICntrl=      2127 FMM=F ISym2X=1 I1Cent= 0 IOpClX= 0 NMat=1 NMatS=1 NMatT=0.
 ***** Axes restored to original set *****
 -------------------------------------------------------------------
 Center     Atomic                   Forces (Hartrees/Bohr)
 Number     Number              X              Y              Z
 -------------------------------------------------------------------
      1        6          -0.000053388    0.012033966    0.020799787
      2        1           0.004415054   -0.017593777   -0.002945300
      3        1           0.004465058    0.006201973   -0.016712488
      4        1          -0.018439477   -0.002684877   -0.004707622
      5        6           0.017454414   -0.016818490   -0.029006344
      6        1          -0.007364945    0.017710476    0.003099718
      7        1          -0.007415016   -0.006116981    0.016885251
      8        6          -0.025803685    0.017343340    0.029883190
      9        1           0.007778719    0.006715972   -0.016781267
     10        1           0.007726949   -0.017920029   -0.002527947
     11        6           0.024770443   -0.017814353   -0.030701060
     12        1          -0.007818859   -0.006712317    0.016635660
     13        1          -0.007767366    0.017792103    0.002458467
     14        6          -0.025184369    0.017806353    0.030685729
     15        1           0.007844977    0.006725832   -0.016642240
     16        1           0.007793429   -0.017804625   -0.002449982
     17        6           0.025145817   -0.017864278   -0.030785989
     18        1          -0.007833624   -0.006726618    0.016647990
     19        1          -0.007782063    0.017809966    0.002452188
     20        6          -0.025145817    0.017864278    0.030785989
     21        1           0.007833624    0.006726618   -0.016647990
     22        1           0.007782063   -0.017809966   -0.002452188
     23        6           0.025184369   -0.017806353   -0.030685729
     24        1          -0.007844977   -0.006725832    0.016642240
     25        1          -0.007793429    0.017804625    0.002449982
     26        6          -0.024770443    0.017814353    0.030701060
     27        1           0.007818859    0.006712317   -0.016635660
     28        1           0.007767366   -0.017792103   -0.002458467
     29        6           0.025803685   -0.017343340   -0.029883190
     30        1          -0.007778719   -0.006715972    0.016781267
     31        1          -0.007726949    0.017920029    0.002527947
     32        6          -0.017454414    0.016818490    0.029006344
     33        1           0.007415016    0.006116981   -0.016885251
     34        1           0.007364945   -0.017710476   -0.003099718
     35        6           0.000053388   -0.012033966   -0.020799787
     36        1          -0.004465058   -0.006201973    0.016712488
     37        1           0.018439477    0.002684877    0.004707622
     38        1          -0.004415054    0.017593777    0.002945300
 -------------------------------------------------------------------
 Cartesian Forces:  Max     0.030785989 RMS     0.015898123

 GradGradGradGradGradGradGradGradGradGradGradGradGradGradGradGradGradGrad
 Berny optimization.
 FormGI is forming the generalized inverse of G from B-inverse, IUseBI=4.
 Internal  Forces:  Max     0.019465800 RMS     0.008072107
 Search for a local minimum.
 Step number   1 out of a maximum of  218
 All quantities printed in internal units (Hartrees-Bohrs-Radians)
 Mixed Optimization -- RFO/linear search
 Second derivative matrix not updated -- first step.
 ITU=  0
     Eigenvalues ---    0.00237   0.00237   0.00237   0.00237   0.00237
     Eigenvalues ---    0.00237   0.00237   0.00237   0.00237   0.00237
     Eigenvalues ---    0.00237   0.03840   0.03840   0.03840   0.03840
     Eigenvalues ---    0.03840   0.03840   0.03840   0.03840   0.03840
     Eigenvalues ---    0.03840   0.04896   0.04896   0.04896   0.04896
     Eigenvalues ---    0.04896   0.04896   0.04896   0.04896   0.04896
     Eigenvalues ---    0.04896   0.05720   0.05720   0.05720   0.05720
     Eigenvalues ---    0.07655   0.07655   0.07655   0.07655   0.07655
     Eigenvalues ---    0.07655   0.07655   0.07655   0.07655   0.07655
     Eigenvalues ---    0.11701   0.11701   0.11701   0.11701   0.11701
     Eigenvalues ---    0.11701   0.11701   0.11701   0.11701   0.11701
     Eigenvalues ---    0.16000   0.16000   0.16000   0.16000   0.16000
     Eigenvalues ---    0.16000   0.21948   0.21948   0.21948   0.21948
     Eigenvalues ---    0.21948   0.21948   0.21948   0.21948   0.21948
     Eigenvalues ---    0.21948   0.28519   0.28519   0.28519   0.28519
     Eigenvalues ---    0.28519   0.28519   0.28519   0.28519   0.28519
     Eigenvalues ---    0.28519   0.28519   0.37230   0.37230   0.37230
     Eigenvalues ---    0.37230   0.37230   0.37230   0.37230   0.37230
     Eigenvalues ---    0.37230   0.37230   0.37230   0.37230   0.37230
     Eigenvalues ---    0.37230   0.37230   0.37230   0.37230   0.37230
     Eigenvalues ---    0.37230   0.37230   0.37230   0.37230   0.37230
     Eigenvalues ---    0.37230   0.37230   0.37230
 RFO step:  Lambda=-4.11163847D-02 EMin= 2.36824109D-03
 Linear search not attempted -- first point.
 Maximum step size (   0.300) exceeded in Quadratic search.
    -- Step size scaled by   0.881
 Iteration  1 RMS(Cart)=  0.10340982 RMS(Int)=  0.00041976
 Iteration  2 RMS(Cart)=  0.00110609 RMS(Int)=  0.00012112
 Iteration  3 RMS(Cart)=  0.00000038 RMS(Int)=  0.00012112
 ClnCor:  largest displacement from symmetrization is 5.78D-08 for atom    38.
 Variable       Old X    -DE/DX   Delta X   Delta X   Delta X     New X
                                 (Linear)    (Quad)   (Total)
    R1        2.02201   0.01806   0.00000   0.03848   0.03848   2.06049
    R2        2.02201   0.01806   0.00000   0.03848   0.03848   2.06049
    R3        2.02201   0.01844   0.00000   0.03929   0.03929   2.06130
    R4        2.91018   0.00708   0.00000   0.01911   0.01911   2.92929
    R5        2.02201   0.01915   0.00000   0.04080   0.04080   2.06281
    R6        2.02201   0.01915   0.00000   0.04080   0.04080   2.06281
    R7        2.91018   0.00694   0.00000   0.01873   0.01873   2.92891
    R8        2.02201   0.01947   0.00000   0.04148   0.04148   2.06349
    R9        2.02201   0.01947   0.00000   0.04148   0.04148   2.06349
   R10        2.91018   0.00792   0.00000   0.02139   0.02139   2.93156
   R11        2.02201   0.01936   0.00000   0.04125   0.04125   2.06326
   R12        2.02201   0.01936   0.00000   0.04125   0.04125   2.06326
   R13        2.91018   0.00805   0.00000   0.02174   0.02174   2.93192
   R14        2.02201   0.01938   0.00000   0.04130   0.04130   2.06330
   R15        2.02201   0.01938   0.00000   0.04130   0.04130   2.06330
   R16        2.91018   0.00806   0.00000   0.02175   0.02175   2.93193
   R17        2.02201   0.01938   0.00000   0.04130   0.04130   2.06331
   R18        2.02201   0.01938   0.00000   0.04130   0.04130   2.06331
   R19        2.91018   0.00807   0.00000   0.02178   0.02178   2.93196
   R20        2.02201   0.01938   0.00000   0.04130   0.04130   2.06331
   R21        2.02201   0.01938   0.00000   0.04130   0.04130   2.06331
   R22        2.91018   0.00806   0.00000   0.02175   0.02175   2.93193
   R23        2.02201   0.01938   0.00000   0.04130   0.04130   2.06330
   R24        2.02201   0.01938   0.00000   0.04130   0.04130   2.06330
   R25        2.91018   0.00805   0.00000   0.02174   0.02174   2.93192
   R26        2.02201   0.01936   0.00000   0.04125   0.04125   2.06326
   R27        2.02201   0.01936   0.00000   0.04125   0.04125   2.06326
   R28        2.91018   0.00792   0.00000   0.02139   0.02139   2.93156
   R29        2.02201   0.01947   0.00000   0.04148   0.04148   2.06349
   R30        2.02201   0.01947   0.00000   0.04148   0.04148   2.06349
   R31        2.91018   0.00694   0.00000   0.01873   0.01873   2.92891
   R32        2.02201   0.01915   0.00000   0.04080   0.04080   2.06281
   R33        2.02201   0.01915   0.00000   0.04080   0.04080   2.06281
   R34        2.91018   0.00708   0.00000   0.01911   0.01911   2.92929
   R35        2.02201   0.01806   0.00000   0.03848   0.03848   2.06049
   R36        2.02201   0.01844   0.00000   0.03929   0.03929   2.06130
   R37        2.02201   0.01806   0.00000   0.03848   0.03848   2.06049
    A1        1.91063  -0.00343   0.00000  -0.01684  -0.01688   1.89375
    A2        1.91063  -0.00447   0.00000  -0.01866  -0.01889   1.89174
    A3        1.91063   0.00294   0.00000   0.01241   0.01227   1.92290
    A4        1.91063  -0.00447   0.00000  -0.01866  -0.01889   1.89174
    A5        1.91063   0.00294   0.00000   0.01241   0.01227   1.92290
    A6        1.91063   0.00649   0.00000   0.02934   0.02910   1.93973
    A7        1.91063  -0.00284   0.00000  -0.00496  -0.00505   1.90558
    A8        1.91063  -0.00284   0.00000  -0.00496  -0.00505   1.90558
[...]
    21  H    0.000000   0.000002  -0.000002   0.000001   0.000042   0.000005
    22  H    0.000000   0.000002   0.000001  -0.000002   0.000042   0.000004
    23  C    0.000000   0.000001   0.000000   0.000000  -0.000140   0.000002
    24  H    0.000000   0.000000   0.000000   0.000000   0.000002  -0.000002
    25  H    0.000000   0.000000   0.000000   0.000000   0.000002   0.000001
    26  C    0.000000   0.000000   0.000000   0.000000   0.000001   0.000000
    27  H    0.000000   0.000000   0.000000   0.000000   0.000000   0.000000
    28  H    0.000000   0.000000   0.000000   0.000000   0.000000   0.000000
    29  C    0.000000   0.000000   0.000000   0.000000   0.000000   0.000000
    30  H    0.000000   0.000000   0.000000   0.000000   0.000000   0.000000
    31  H    0.000000   0.000000   0.000000   0.000000   0.000000   0.000000
    32  C    0.000000   0.000000   0.000000   0.000000   0.000000   0.000000
    33  H    0.000000   0.000000   0.000000   0.000000   0.000000   0.000000
    34  H    0.000000   0.000000   0.000000   0.000000   0.000000   0.000000
    35  C    0.000000   0.000000   0.000000   0.000000   0.000000   0.000000
    36  H    0.000000   0.000000   0.000000   0.000000   0.000000   0.000000
    37  H    0.000000   0.000000   0.000000   0.000000   0.000000   0.000000
    38  H    0.000000   0.000000   0.000000   0.000000   0.000000   0.000000
              13         14         15         16         17         18
     1  C    0.000042  -0.000153   0.000002   0.000002   0.000001   0.000000
     2  H    0.000006   0.000001   0.000000  -0.000001   0.000000   0.000000
     3  H    0.000001   0.000001  -0.000001   0.000000   0.000000   0.000000
     4  H    0.000002   0.000001   0.000000   0.000000   0.000000   0.000000
     5  C   -0.003042   0.003899   0.000037   0.000037  -0.000141   0.000002
     6  H    0.005203   0.000038   0.000003   0.000005   0.000002   0.000001
     7  H   -0.000565   0.000038   0.000005   0.000003   0.000002  -0.000002
     8  C   -0.043592  -0.035534  -0.002964  -0.002964   0.003855   0.000041
     9  H   -0.005732  -0.002979   0.005084  -0.000546   0.000046   0.000005
    10  H    0.005890  -0.002979  -0.000546   0.005084   0.000046   0.000004
    11  C    0.375554   0.314416  -0.043596  -0.043596  -0.035290  -0.002929
    12  H   -0.042287  -0.043565   0.005883  -0.005728  -0.002924   0.005096
    13  H    0.631198  -0.043565  -0.005728   0.005883  -0.002924  -0.000546
    14  C   -0.043565   5.108650   0.375626   0.375626   0.313337  -0.043605
    15  H   -0.005728   0.375626   0.631019  -0.042254  -0.043576   0.005881
    16  H    0.005883   0.375626  -0.042254   0.631019  -0.043576  -0.005726
    17  C   -0.002924   0.313337  -0.043576  -0.043576   5.109416   0.375605
    18  H   -0.000546  -0.043605   0.005881  -0.005726   0.375605   0.631064
    19  H    0.005096  -0.043605  -0.005726   0.005881   0.375605  -0.042251
    20  C    0.000042  -0.035232  -0.002927  -0.002927   0.313191  -0.043595
    21  H    0.000004  -0.002927   0.005093  -0.000545  -0.043595   0.005881
    22  H    0.000005  -0.002927  -0.000545   0.005093  -0.043595  -0.005725
    23  C    0.000002   0.003819   0.000042   0.000042  -0.035232  -0.002927
    24  H    0.000001   0.000042   0.000005   0.000004  -0.002927   0.005093
    25  H   -0.000002   0.000042   0.000004   0.000005  -0.002927  -0.000545
    26  C    0.000000  -0.000140   0.000002   0.000002   0.003824   0.000042
    27  H    0.000000   0.000002  -0.000002   0.000001   0.000042   0.000005
    28  H    0.000000   0.000002   0.000001  -0.000002   0.000042   0.000004
    29  C    0.000000   0.000001   0.000000   0.000000  -0.000141   0.000002
    30  H    0.000000   0.000000   0.000000   0.000000   0.000001  -0.000002
    31  H    0.000000   0.000000   0.000000   0.000000   0.000001   0.000001
    32  C    0.000000   0.000000   0.000000   0.000000   0.000001   0.000000
    33  H    0.000000   0.000000   0.000000   0.000000   0.000000   0.000000
    34  H    0.000000   0.000000   0.000000   0.000000   0.000000   0.000000
    35  C    0.000000   0.000000   0.000000   0.000000   0.000000   0.000000
    36  H    0.000000   0.000000   0.000000   0.000000   0.000000   0.000000
    37  H    0.000000   0.000000   0.000000   0.000000   0.000000   0.000000
    38  H    0.000000   0.000000   0.000000   0.000000   0.000000   0.000000
              19         20         21         22         23         24
     1  C    0.000000   0.000000   0.000000   0.000000   0.000000   0.000000
     2  H    0.000000   0.000000   0.000000   0.000000   0.000000   0.000000
     3  H    0.000000   0.000000   0.000000   0.000000   0.000000   0.000000
     4  H    0.000000   0.000000   0.000000   0.000000   0.000000   0.000000
     5  C    0.000002   0.000001   0.000000   0.000000   0.000000   0.000000
     6  H   -0.000002   0.000000   0.000000   0.000000   0.000000   0.000000
     7  H    0.000001   0.000000   0.000000   0.000000   0.000000   0.000000
     8  C    0.000041  -0.000141   0.000002   0.000002   0.000001   0.000000
     9  H    0.000004   0.000001  -0.000002   0.000001   0.000000   0.000000
    10  H    0.000005   0.000001   0.000001  -0.000002   0.000000   0.000000
    11  C   -0.002929   0.003824   0.000042   0.000042  -0.000140   0.000002
    12  H   -0.000546   0.000042   0.000005   0.000004   0.000002  -0.000002
    13  H    0.005096   0.000042   0.000004   0.000005   0.000002   0.000001
    14  C   -0.043605  -0.035232  -0.002927  -0.002927   0.003819   0.000042
    15  H   -0.005726  -0.002927   0.005093  -0.000545   0.000042   0.000005
    16  H    0.005881  -0.002927  -0.000545   0.005093   0.000042   0.000004
    17  C    0.375605   0.313191  -0.043595  -0.043595  -0.035232  -0.002927
    18  H   -0.042251  -0.043595   0.005881  -0.005725  -0.002927   0.005093
    19  H    0.631064  -0.043595  -0.005725   0.005881  -0.002927  -0.000545
    20  C   -0.043595   5.109416   0.375605   0.375605   0.313337  -0.043576
    21  H   -0.005725   0.375605   0.631064  -0.042251  -0.043605   0.005881
    22  H    0.005881   0.375605  -0.042251   0.631064  -0.043605  -0.005726
    23  C   -0.002927   0.313337  -0.043605  -0.043605   5.108650   0.375626
    24  H   -0.000545  -0.043576   0.005881  -0.005726   0.375626   0.631019
    25  H    0.005093  -0.043576  -0.005726   0.005881   0.375626  -0.042254
    26  C    0.000042  -0.035290  -0.002929  -0.002929   0.314416  -0.043596
    27  H    0.000004  -0.002924   0.005096  -0.000546  -0.043565   0.005883
    28  H    0.000005  -0.002924  -0.000546   0.005096  -0.043565  -0.005728
    29  C    0.000002   0.003855   0.000041   0.000041  -0.035534  -0.002964
    30  H    0.000001   0.000046   0.000005   0.000004  -0.002979   0.005084
    31  H   -0.000002   0.000046   0.000004   0.000005  -0.002979  -0.000546
    32  C    0.000000  -0.000141   0.000002   0.000002   0.003899   0.000037
    33  H    0.000000   0.000002  -0.000002   0.000001   0.000038   0.000005
    34  H    0.000000   0.000002   0.000001  -0.000002   0.000038   0.000003
    35  C    0.000000   0.000001   0.000000   0.000000  -0.000153   0.000002
    36  H    0.000000   0.000000   0.000000   0.000000   0.000001  -0.000001
    37  H    0.000000   0.000000   0.000000   0.000000   0.000001   0.000000
    38  H    0.000000   0.000000   0.000000   0.000000   0.000001   0.000000
              25         26         27         28         29         30
     1  C    0.000000   0.000000   0.000000   0.000000   0.000000   0.000000
     2  H    0.000000   0.000000   0.000000   0.000000   0.000000   0.000000
     3  H    0.000000   0.000000   0.000000   0.000000   0.000000   0.000000
     4  H    0.000000   0.000000   0.000000   0.000000   0.000000   0.000000
     5  C    0.000000   0.000000   0.000000   0.000000   0.000000   0.000000
     6  H    0.000000   0.000000   0.000000   0.000000   0.000000   0.000000
     7  H    0.000000   0.000000   0.000000   0.000000   0.000000   0.000000
     8  C    0.000000   0.000000   0.000000   0.000000   0.000000   0.000000
     9  H    0.000000   0.000000   0.000000   0.000000   0.000000   0.000000
    10  H    0.000000   0.000000   0.000000   0.000000   0.000000   0.000000
    11  C    0.000002   0.000001   0.000000   0.000000   0.000000   0.000000
    12  H    0.000001   0.000000   0.000000   0.000000   0.000000   0.000000
    13  H   -0.000002   0.000000   0.000000   0.000000   0.000000   0.000000
    14  C    0.000042  -0.000140   0.000002   0.000002   0.000001   0.000000
    15  H    0.000004   0.000002  -0.000002   0.000001   0.000000   0.000000
    16  H    0.000005   0.000002   0.000001  -0.000002   0.000000   0.000000
    17  C   -0.002927   0.003824   0.000042   0.000042  -0.000141   0.000001
    18  H   -0.000545   0.000042   0.000005   0.000004   0.000002  -0.000002
    19  H    0.005093   0.000042   0.000004   0.000005   0.000002   0.000001
    20  C   -0.043576  -0.035290  -0.002924  -0.002924   0.003855   0.000046
    21  H   -0.005726  -0.002929   0.005096  -0.000546   0.000041   0.000005
    22  H    0.005881  -0.002929  -0.000546   0.005096   0.000041   0.000004
    23  C    0.375626   0.314416  -0.043565  -0.043565  -0.035534  -0.002979
    24  H   -0.042254  -0.043596   0.005883  -0.005728  -0.002964   0.005084
    25  H    0.631019  -0.043596  -0.005728   0.005883  -0.002964  -0.000546
    26  C   -0.043596   5.103824   0.375554   0.375554   0.318153  -0.043325
    27  H   -0.005728   0.375554   0.631198  -0.042287  -0.043592   0.005890
    28  H    0.005883   0.375554  -0.042287   0.631198  -0.043592  -0.005732
    29  C   -0.002964   0.318153  -0.043592  -0.043592   5.091832   0.375750
    30  H   -0.000546  -0.043325   0.005890  -0.005732   0.375750   0.631850
    31  H    0.005084  -0.043325  -0.005732   0.005890   0.375750  -0.042469
    32  C    0.000037  -0.036063  -0.003042  -0.003042   0.330904  -0.044284
    33  H    0.000003  -0.003079   0.005203  -0.000565  -0.043802   0.005935
    34  H    0.000005  -0.003079  -0.000565   0.005203  -0.043802  -0.005816
    35  C    0.000002   0.004135   0.000042   0.000042  -0.044814  -0.002493
    36  H    0.000000   0.000049   0.000006   0.000001  -0.004408   0.004950
    37  H    0.000000  -0.000159   0.000002   0.000002   0.004322  -0.000016
    38  H   -0.000001   0.000049   0.000001   0.000006  -0.004408  -0.000498
              31         32         33         34         35         36
     1  C    0.000000   0.000000   0.000000   0.000000   0.000000   0.000000
     2  H    0.000000   0.000000   0.000000   0.000000   0.000000   0.000000
     3  H    0.000000   0.000000   0.000000   0.000000   0.000000   0.000000
     4  H    0.000000   0.000000   0.000000   0.000000   0.000000   0.000000
     5  C    0.000000   0.000000   0.000000   0.000000   0.000000   0.000000
     6  H    0.000000   0.000000   0.000000   0.000000   0.000000   0.000000
     7  H    0.000000   0.000000   0.000000   0.000000   0.000000   0.000000
     8  C    0.000000   0.000000   0.000000   0.000000   0.000000   0.000000
     9  H    0.000000   0.000000   0.000000   0.000000   0.000000   0.000000
    10  H    0.000000   0.000000   0.000000   0.000000   0.000000   0.000000
    11  C    0.000000   0.000000   0.000000   0.000000   0.000000   0.000000
    12  H    0.000000   0.000000   0.000000   0.000000   0.000000   0.000000
    13  H    0.000000   0.000000   0.000000   0.000000   0.000000   0.000000
    14  C    0.000000   0.000000   0.000000   0.000000   0.000000   0.000000
    15  H    0.000000   0.000000   0.000000   0.000000   0.000000   0.000000
    16  H    0.000000   0.000000   0.000000   0.000000   0.000000   0.000000
    17  C    0.000001   0.000001   0.000000   0.000000   0.000000   0.000000
    18  H    0.000001   0.000000   0.000000   0.000000   0.000000   0.000000
    19  H   -0.000002   0.000000   0.000000   0.000000   0.000000   0.000000
    20  C    0.000046  -0.000141   0.000002   0.000002   0.000001   0.000000
    21  H    0.000004   0.000002  -0.000002   0.000001   0.000000   0.000000
    22  H    0.000005   0.000002   0.000001  -0.000002   0.000000   0.000000
    23  C   -0.002979   0.003899   0.000038   0.000038  -0.000153   0.000001
    24  H   -0.000546   0.000037   0.000005   0.000003   0.000002  -0.000001
    25  H    0.005084   0.000037   0.000003   0.000005   0.000002   0.000000
    26  C   -0.043325  -0.036063  -0.003079  -0.003079   0.004135   0.000049
    27  H   -0.005732  -0.003042   0.005203  -0.000565   0.000042   0.000006
    28  H    0.005890  -0.003042  -0.000565   0.005203   0.000042   0.000001
    29  C    0.375750   0.330904  -0.043802  -0.043802  -0.044814  -0.004408
    30  H   -0.042469  -0.044284   0.005935  -0.005816  -0.002493   0.004950
    31  H    0.631850  -0.044284  -0.005816   0.005935  -0.002493  -0.000498
    32  C   -0.044284   5.054496   0.378648   0.378648   0.325846  -0.037847
    33  H   -0.005816   0.378648   0.626245  -0.041714  -0.041277   0.005241
    34  H    0.005935   0.378648  -0.041714   0.626245  -0.041277  -0.004740
    35  C   -0.002493   0.325846  -0.041277  -0.041277   5.086857   0.376338
    36  H   -0.000498  -0.037847   0.005241  -0.004740   0.376338   0.597863
    37  H   -0.000016  -0.029403  -0.002673  -0.002673   0.368108  -0.033089
    38  H    0.004950  -0.037847  -0.004740   0.005241   0.376338  -0.034445
              37         38
     1  C    0.000000   0.000000
     2  H    0.000000   0.000000
     3  H    0.000000   0.000000
     4  H    0.000000   0.000000
     5  C    0.000000   0.000000
     6  H    0.000000   0.000000
     7  H    0.000000   0.000000
     8  C    0.000000   0.000000
     9  H    0.000000   0.000000
    10  H    0.000000   0.000000
    11  C    0.000000   0.000000
    12  H    0.000000   0.000000
    13  H    0.000000   0.000000
    14  C    0.000000   0.000000
    15  H    0.000000   0.000000
    16  H    0.000000   0.000000
    17  C    0.000000   0.000000
    18  H    0.000000   0.000000
    19  H    0.000000   0.000000
    20  C    0.000000   0.000000
    21  H    0.000000   0.000000
    22  H    0.000000   0.000000
    23  C    0.000001   0.000001
    24  H    0.000000   0.000000
    25  H    0.000000  -0.000001
    26  C   -0.000159   0.000049
    27  H    0.000002   0.000001
    28  H    0.000002   0.000006
    29  C    0.004322  -0.004408
    30  H   -0.000016  -0.000498
    31  H   -0.000016   0.004950
    32  C   -0.029403  -0.037847
    33  H   -0.002673  -0.004740
    34  H   -0.002673   0.005241
    35  C    0.368108   0.376338
    36  H   -0.033089  -0.034445
    37  H    0.599489  -0.033089
    38  H   -0.033089   0.597863
 Mulliken charges:
               1
     1  C   -0.405204
     2  H    0.130578
     3  H    0.130578
     4  H    0.129194
     5  C   -0.236565
     6  H    0.122346
     7  H    0.122346
     8  C   -0.230633
     9  H    0.118642
    10  H    0.118642
    11  C   -0.238137
    12  H    0.119052
    13  H    0.119052
    14  C   -0.238329
    15  H    0.119178
    16  H    0.119178
    17  C   -0.238170
    18  H    0.119126
    19  H    0.119126
    20  C   -0.238170
    21  H    0.119126
    22  H    0.119126
    23  C   -0.238329
    24  H    0.119178
    25  H    0.119178
    26  C   -0.238137
    27  H    0.119052
    28  H    0.119052
    29  C   -0.230633
    30  H    0.118642
    31  H    0.118642
    32  C   -0.236565
    33  H    0.122346
    34  H    0.122346
    35  C   -0.405204
    36  H    0.130578
    37  H    0.129194
    38  H    0.130578
 Sum of Mulliken charges =   0.00000
 Mulliken charges with hydrogens summed into heavy atoms:
               1
     1  C   -0.014853
     5  C    0.008127
     8  C    0.006651
    11  C   -0.000032
    14  C    0.000026
    17  C    0.000081
    20  C    0.000081
    23  C    0.000026
    26  C   -0.000032
    29  C    0.006651
    32  C    0.008127
    35  C   -0.014853
 Electronic spatial extent (au):  <R**2>=           7622.5788
 Charge=              0.0000 electrons
 Dipole moment (field-independent basis, Debye):
    X=              0.0000    Y=              0.0000    Z=              0.0000  Tot=              0.0000
 Quadrupole moment (field-independent basis, Debye-Ang):
   XX=            -82.3147   YY=            -83.0372   ZZ=            -80.5121
   XY=              0.4160   XZ=              0.0000   YZ=              0.0000
 Traceless Quadrupole moment (field-independent basis, Debye-Ang):
   XX=             -0.3601   YY=             -1.0825   ZZ=              1.4426
   XY=              0.4160   XZ=              0.0000   YZ=              0.0000
 Octapole moment (field-independent basis, Debye-Ang**2):
  XXX=              0.0000  YYY=              0.0000  ZZZ=              0.0000  XYY=              0.0000
  XXY=              0.0000  XXZ=              0.0000  XZZ=              0.0000  YZZ=              0.0000
  YYZ=              0.0000  XYZ=              0.0000
 Hexadecapole moment (field-independent basis, Debye-Ang**3):
 XXXX=           -320.5053 YYYY=         -10310.7210 ZZZZ=           -168.2128 XXXY=           -278.7264
 XXXZ=              0.0000 YYYX=           -234.5975 YYYZ=              0.0000 ZZZX=              0.0000
 ZZZY=              0.0000 XXYY=          -1749.7541 XXZZ=            -75.7811 YYZZ=          -1704.9290
 XXYZ=              0.0000 YYXZ=              0.0000 ZZXY=            -95.8924
 N-N= 6.673123557254D+02 E-N=-2.427886659227D+03  KE= 4.700010923258D+02
 Symmetry AG   KE= 2.247312447998D+02
 Symmetry BG   KE= 1.186963975461D+01
 Symmetry AU   KE= 1.168963525530D+01
 Symmetry BU   KE= 2.217105725161D+02
 1|1|UNPC-6424705A076343F|FOpt|RB3LYP|6-31G|C12H26|TKMELDRUM|14-Mar-202
 3|0||# opt b3lyp/6-31g geom=connectivity||Title Card Required||0,1|C,-
 8.937759954,-3.5955750194,-0.0727201796|H,-8.6007152399,-4.6393982739,
 -0.1072966932|H,-8.597493697,-3.1063408529,-0.9942571924|H,-10.0340264
 435,-3.5976845783,-0.0803481908|C,-8.3855072327,-2.8780547515,1.169475
 9252|H,-8.7644967424,-1.8455683266,1.196190374|H,-8.7676966334,-3.3683
 220741,2.0771896148|C,-6.8467470761,-2.8524884412,1.2192546963|H,-6.46
 36406298,-2.3616321013,0.3110773926|H,-6.4668432261,-3.8856732552,1.19
 28214709|C,-6.284629114,-2.1357211355,2.4601851834|H,-6.6685542878,-2.
 6269692594,3.367711332|H,-6.6653516387,-1.1029029702,2.4859527115|C,-4
 .7461339344,-2.1104064581,2.5095280598|H,-4.3621791898,-1.619155109,1.
 6020560028|H,-4.3653817507,-3.1431794306,2.4837903426|C,-4.1842428593,
 -1.3935389118,3.7506309826|H,-4.568185021,-1.8847948845,4.6581168276|H
 ,-4.5649824205,-0.3607517213,3.7763715868|C,-2.6457792205,-1.368273321
 ,3.7998889013|H,-2.2618370588,-0.8770173484,2.8924030563|H,-2.26503965
 93,-2.4010605115,3.7741482971|C,-2.0838881454,-0.6514057747,5.04099182
 41|H,-2.46784289,-1.1426571238,5.9484638811|H,-2.4646403291,0.38136719
 77,5.0667295413|C,-0.5453929658,-0.6260910974,5.0903347005|H,-0.161467
 792,-0.1348429734,4.1828085519|H,-0.1646704411,-1.6589092626,5.0645671
 724|C,0.0167249963,0.0906762083,6.3312651876|H,-0.36638145,-0.40018013
 15,7.2394424913|H,-0.3631788537,1.1238610223,6.357698413|C,1.555485152
 9,0.1162425186,6.3810439587|H,1.9376745536,0.6065098412,5.4733302691|H
 ,1.9344746626,-0.9162439063,6.3543295099|C,2.1077378742,0.8337627865,7
 .6232400635|H,1.7674716172,0.34452862,8.5447770763|H,3.2040043637,0.83
 58723454,7.6308680747|H,1.7706931601,1.877586041,7.6578165771||Version
 =EM64W-G16RevB.01|State=1-AG|HF=-472.8534682|RMSD=4.577e-009|RMSF=1.73
 0e-005|Dipole=0.,0.,0.|Quadrupole=-0.2835359,0.6061898,-0.3226539,-0.1
 59316,-0.2802934,-0.8065961|PG=C02H [SGH(C12H2),X(H24)]||@


 THE ATTENTION SPAN OF A COMPUTER IS AS LONG
 AS ITS EXTENSION CORD.
 Job cpu time:       0 days  0 hours  5 minutes 24.0 seconds.
 Elapsed time:       0 days  0 hours  5 minutes 18.2 seconds.
 File lengths (MBytes):  RWF=     18 Int=      0 D2E=      0 Chk=      4 Scr=      1
 Normal termination of Gaussian 16 at Tue Mar 14 10:21:47 2023.
