 Entering Link 1 = C:\Gaussian\l1.exe PID=      4912.
  
 Copyright (c) 1988-2017, Gaussian, Inc.  All Rights Reserved.
  
 This is part of the Gaussian(R) 16 program.  It is based on
 the Gaussian(R) 09 system (copyright 2009, Gaussian, Inc.),
 the Gaussian(R) 03 system (copyright 2003, Gaussian, Inc.),
 the Gaussian(R) 98 system (copyright 1998, Gaussian, Inc.),
 the Gaussian(R) 94 system (copyright 1995, Gaussian, Inc.),
 the Gaussian 92(TM) system (copyright 1992, Gaussian, Inc.),
 the Gaussian 90(TM) system (copyright 1990, Gaussian, Inc.),
 the Gaussian 88(TM) system (copyright 1988, Gaussian, Inc.),
 the Gaussian 86(TM) system (copyright 1986, Carnegie Mellon
 University), and the Gaussian 82(TM) system (copyright 1983,
 Carnegie Mellon University). Gaussian is a federally registered
 trademark of Gaussian, Inc.
  
 This software contains proprietary and confidential information,
 including trade secrets, belonging to Gaussian, Inc.
  
 This software is provided under written license and may be
 used, copied, transmitted, or stored only in accord with that
 written license.
  
 The following legend is applicable only to US Government
 contracts under FAR:
  
                    RESTRICTED RIGHTS LEGEND
  
 Use, reproduction and disclosure by the US Government is
 subject to restrictions as set forth in subparagraphs (a)
 and (c) of the Commercial Computer Software - Restricted
 Rights clause in FAR 52.227-19.
  
 Gaussian, Inc.
 340 Quinnipiac St., Bldg. 40, Wallingford CT 06492
  
  
 ---------------------------------------------------------------
 Warning -- This program may not be used in any manner that
 competes with the business of Gaussian, Inc. or will provide
 assistance to any competitor of Gaussian, Inc.  The licensee
 of this program is prohibited from giving any competitor of
 Gaussian, Inc. access to this program.  By using this program,
 the user acknowledges that Gaussian, Inc. is engaged in the
 business of creating and licensing software in the field of
 computational chemistry and represents and warrants to the
 licensee that it is not a competitor of Gaussian, Inc. and that
 it will not use this program in any manner prohibited above.
 ---------------------------------------------------------------
  

 Cite this work as:
 Gaussian 16, Revision B.01,
 M. J. Frisch, G. W. Trucks, H. B. Schlegel, G. E. Scuseria, 
 M. A. Robb, J. R. Cheeseman, G. Scalmani, V. Barone, 
 G. A. Petersson, H. Nakatsuji, X. Li, M. Caricato, A. V. Marenich, 
 J. Bloino, B. G. Janesko, R. Gomperts, B. Mennucci, H. P. Hratchian, 
 J. V. Ortiz, A. F. Izmaylov, J. L. Sonnenberg, D. Williams-Young, 
 F. Ding, F. Lipparini, F. Egidi, J. Goings, B. Peng, A. Petrone, 
 T. Henderson, D. Ranasinghe, V. G. Zakrzewski, J. Gao, N. Rega, 
 G. Zheng, W. Liang, M. Hada, M. Ehara, K. Toyota, R. Fukuda, 
 J. Hasegawa, M. Ishida, T. Nakajima, Y. Honda, O. Kitao, H. Nakai, 
 T. Vreven, K. Throssell, J. A. Montgomery, Jr., J. E. Peralta, 
 F. Ogliaro, M. J. Bearpark, J. J. Heyd, E. N. Brothers, K. N. Kudin, 
 V. N. Staroverov, T. A. Keith, R. Kobayashi, J. Normand, 
 K. Raghavachari, A. P. Rendell, J. C. Burant, S. S. Iyengar, 
 J. Tomasi, M. Cossi, J. M. Millam, M. Klene, C. Adamo, R. Cammi, 
 J. W. Ochterski, R. L. Martin, K. Morokuma, O. Farkas, 
 J. B. Foresman, and D. J. Fox, Gaussian, Inc., Wallingford CT, 2016.
 
 ******************************************
 Gaussian 16:  EM64W-G16RevB.01 16-Dec-2017
                14-Mar-2023 
 ******************************************
 %chk=C:\Users\tkmeldrum\Documents\MDworking\C8H18.chk
 -----------------------------------
 # opt b3lyp/6-31g geom=connectivity
 -----------------------------------
 1/18=20,19=15,26=3,38=1,57=2/1,3;
 2/9=110,12=2,17=6,18=5,40=1/2;
 3/5=1,6=6,11=2,25=1,30=1,71=1,74=-5/1,2,3;
 4//1;
 5/5=2,38=5/2;
 6/7=2,8=2,9=2,10=2,28=1/1;
 7//1,2,3,16;
 1/18=20,19=15,26=3/3(2);
 2/9=110/2;
 99//99;
 2/9=110/2;
 3/5=1,6=6,11=2,25=1,30=1,71=1,74=-5/1,2,3;
 4/5=5,16=3,69=1/1;
 5/5=2,38=5/2;
 7//1,2,3,16;
 1/18=20,19=15,26=3/3(-5);
 2/9=110/2;
 6/7=2,8=2,9=2,10=2,19=2,28=1/1;
 99/9=1/99;
 -------------------
 Title Card Required
 -------------------
 Symbolic Z-matrix:
 Charge =  0 Multiplicity = 1
 C                    -7.07547  -0.59769   0.00012 
 H                    -6.72035  -1.60704   0.00127 
 H                    -6.71727  -0.09457  -0.87364 
 H                    -8.14547  -0.59605  -0.00082 
 C                    -6.56213   0.12853   1.25737 
 H                    -6.91725   1.13788   1.25622 
 H                    -6.92034  -0.3746    2.13113 
 C                    -5.02213   0.12617   1.25873 
 H                    -4.66393   0.6293    0.38497 
 H                    -4.66701  -0.88318   1.25988 
 C                    -4.50879   0.85239   2.51598 
 H                    -4.867     0.34926   3.38973 
 H                    -4.86391   1.86174   2.51482 
 C                    -2.96879   0.85003   2.51733 
 H                    -2.61059   1.35316   1.64357 
 H                    -2.61367  -0.15932   2.51848 
 C                    -2.45545   1.57625   3.77458 
 H                    -2.81366   1.07313   4.64834 
 H                    -2.81057   2.5856    3.77343 
 C                    -0.91545   1.57389   3.77594 
 H                    -0.55725   2.07702   2.90218 
 H                    -0.56033   0.56454   3.77709 
 C                    -0.40211   2.30011   5.03319 
 H                    -0.76032   1.79699   5.90694 
 H                     0.66789   2.29847   5.03413 
 H                    -0.75723   3.30946   5.03203 
 

 GradGradGradGradGradGradGradGradGradGradGradGradGradGradGradGradGradGrad
 Berny optimization.
 Initialization pass.
                           ----------------------------
                           !    Initial Parameters    !
                           ! (Angstroms and Degrees)  !
 --------------------------                            --------------------------
 ! Name  Definition              Value          Derivative Info.                !
 --------------------------------------------------------------------------------
 ! R1    R(1,2)                  1.07           estimate D2E/DX2                !
 ! R2    R(1,3)                  1.07           estimate D2E/DX2                !
 ! R3    R(1,4)                  1.07           estimate D2E/DX2                !
 ! R4    R(1,5)                  1.54           estimate D2E/DX2                !
 ! R5    R(5,6)                  1.07           estimate D2E/DX2                !
 ! R6    R(5,7)                  1.07           estimate D2E/DX2                !
 ! R7    R(5,8)                  1.54           estimate D2E/DX2                !
 ! R8    R(8,9)                  1.07           estimate D2E/DX2                !
 ! R9    R(8,10)                 1.07           estimate D2E/DX2                !
 ! R10   R(8,11)                 1.54           estimate D2E/DX2                !
 ! R11   R(11,12)                1.07           estimate D2E/DX2                !
 ! R12   R(11,13)                1.07           estimate D2E/DX2                !
 ! R13   R(11,14)                1.54           estimate D2E/DX2                !
 ! R14   R(14,15)                1.07           estimate D2E/DX2                !
 ! R15   R(14,16)                1.07           estimate D2E/DX2                !
 ! R16   R(14,17)                1.54           estimate D2E/DX2                !
 ! R17   R(17,18)                1.07           estimate D2E/DX2                !
 ! R18   R(17,19)                1.07           estimate D2E/DX2                !
 ! R19   R(17,20)                1.54           estimate D2E/DX2                !
 ! R20   R(20,21)                1.07           estimate D2E/DX2                !
 ! R21   R(20,22)                1.07           estimate D2E/DX2                !
 ! R22   R(20,23)                1.54           estimate D2E/DX2                !
 ! R23   R(23,24)                1.07           estimate D2E/DX2                !
 ! R24   R(23,25)                1.07           estimate D2E/DX2                !
 ! R25   R(23,26)                1.07           estimate D2E/DX2                !
 ! A1    A(2,1,3)              109.4712         estimate D2E/DX2                !
 ! A2    A(2,1,4)              109.4712         estimate D2E/DX2                !
 ! A3    A(2,1,5)              109.4712         estimate D2E/DX2                !
 ! A4    A(3,1,4)              109.4712         estimate D2E/DX2                !
 ! A5    A(3,1,5)              109.4712         estimate D2E/DX2                !
 ! A6    A(4,1,5)              109.4712         estimate D2E/DX2                !
 ! A7    A(1,5,6)              109.4712         estimate D2E/DX2                !
 ! A8    A(1,5,7)              109.4712         estimate D2E/DX2                !
 ! A9    A(1,5,8)              109.4712         estimate D2E/DX2                !
 ! A10   A(6,5,7)              109.4712         estimate D2E/DX2                !
 ! A11   A(6,5,8)              109.4712         estimate D2E/DX2                !
 ! A12   A(7,5,8)              109.4712         estimate D2E/DX2                !
 ! A13   A(5,8,9)              109.4712         estimate D2E/DX2                !
 ! A14   A(5,8,10)             109.4712         estimate D2E/DX2                !
 ! A15   A(5,8,11)             109.4712         estimate D2E/DX2                !
 ! A16   A(9,8,10)             109.4712         estimate D2E/DX2                !
 ! A17   A(9,8,11)             109.4712         estimate D2E/DX2                !
 ! A18   A(10,8,11)            109.4712         estimate D2E/DX2                !
 ! A19   A(8,11,12)            109.4712         estimate D2E/DX2                !
 ! A20   A(8,11,13)            109.4712         estimate D2E/DX2                !
 ! A21   A(8,11,14)            109.4712         estimate D2E/DX2                !
 ! A22   A(12,11,13)           109.4712         estimate D2E/DX2                !
 ! A23   A(12,11,14)           109.4712         estimate D2E/DX2                !
 ! A24   A(13,11,14)           109.4712         estimate D2E/DX2                !
 ! A25   A(11,14,15)           109.4712         estimate D2E/DX2                !
 ! A26   A(11,14,16)           109.4712         estimate D2E/DX2                !
 ! A27   A(11,14,17)           109.4712         estimate D2E/DX2                !
 ! A28   A(15,14,16)           109.4712         estimate D2E/DX2                !
 ! A29   A(15,14,17)           109.4712         estimate D2E/DX2                !
 ! A30   A(16,14,17)           109.4712         estimate D2E/DX2                !
 ! A31   A(14,17,18)           109.4712         estimate D2E/DX2                !
 ! A32   A(14,17,19)           109.4712         estimate D2E/DX2                !
 ! A33   A(14,17,20)           109.4712         estimate D2E/DX2                !
 ! A34   A(18,17,19)           109.4712         estimate D2E/DX2                !
 ! A35   A(18,17,20)           109.4712         estimate D2E/DX2                !
 ! A36   A(19,17,20)           109.4712         estimate D2E/DX2                !
 ! A37   A(17,20,21)           109.4712         estimate D2E/DX2                !
 ! A38   A(17,20,22)           109.4712         estimate D2E/DX2                !
 ! A39   A(17,20,23)           109.4712         estimate D2E/DX2                !
 ! A40   A(21,20,22)           109.4712         estimate D2E/DX2                !
 ! A41   A(21,20,23)           109.4712         estimate D2E/DX2                !
 ! A42   A(22,20,23)           109.4712         estimate D2E/DX2                !
 ! A43   A(20,23,24)           109.4712         estimate D2E/DX2                !
 ! A44   A(20,23,25)           109.4712         estimate D2E/DX2                !
 ! A45   A(20,23,26)           109.4712         estimate D2E/DX2                !
 ! A46   A(24,23,25)           109.4712         estimate D2E/DX2                !
 ! A47   A(24,23,26)           109.4712         estimate D2E/DX2                !
 ! A48   A(25,23,26)           109.4712         estimate D2E/DX2                !
 ! D1    D(2,1,5,6)            180.0            estimate D2E/DX2                !
 ! D2    D(2,1,5,7)            -60.0            estimate D2E/DX2                !
 ! D3    D(2,1,5,8)             60.0            estimate D2E/DX2                !
 ! D4    D(3,1,5,6)             60.0            estimate D2E/DX2                !
 ! D5    D(3,1,5,7)            180.0            estimate D2E/DX2                !
 ! D6    D(3,1,5,8)            -60.0            estimate D2E/DX2                !
 ! D7    D(4,1,5,6)            -60.0            estimate D2E/DX2                !
 ! D8    D(4,1,5,7)             60.0            estimate D2E/DX2                !
 ! D9    D(4,1,5,8)            180.0            estimate D2E/DX2                !
 ! D10   D(1,5,8,9)             60.0            estimate D2E/DX2                !
 ! D11   D(1,5,8,10)           -60.0            estimate D2E/DX2                !
 ! D12   D(1,5,8,11)           180.0            estimate D2E/DX2                !
 ! D13   D(6,5,8,9)            -60.0            estimate D2E/DX2                !
 ! D14   D(6,5,8,10)           180.0            estimate D2E/DX2                !
 ! D15   D(6,5,8,11)            60.0            estimate D2E/DX2                !
 ! D16   D(7,5,8,9)           -180.0            estimate D2E/DX2                !
 ! D17   D(7,5,8,10)            60.0            estimate D2E/DX2                !
 ! D18   D(7,5,8,11)           -60.0            estimate D2E/DX2                !
 ! D19   D(5,8,11,12)           60.0            estimate D2E/DX2                !
 ! D20   D(5,8,11,13)          -60.0            estimate D2E/DX2                !
 ! D21   D(5,8,11,14)          180.0            estimate D2E/DX2                !
 ! D22   D(9,8,11,12)          180.0            estimate D2E/DX2                !
 ! D23   D(9,8,11,13)           60.0            estimate D2E/DX2                !
 ! D24   D(9,8,11,14)          -60.0            estimate D2E/DX2                !
 ! D25   D(10,8,11,12)         -60.0            estimate D2E/DX2                !
 ! D26   D(10,8,11,13)         180.0            estimate D2E/DX2                !
 ! D27   D(10,8,11,14)          60.0            estimate D2E/DX2                !
 ! D28   D(8,11,14,15)          60.0            estimate D2E/DX2                !
 ! D29   D(8,11,14,16)         -60.0            estimate D2E/DX2                !
 ! D30   D(8,11,14,17)         180.0            estimate D2E/DX2                !
 ! D31   D(12,11,14,15)        180.0            estimate D2E/DX2                !
 ! D32   D(12,11,14,16)         60.0            estimate D2E/DX2                !
 ! D33   D(12,11,14,17)        -60.0            estimate D2E/DX2                !
 ! D34   D(13,11,14,15)        -60.0            estimate D2E/DX2                !
 ! D35   D(13,11,14,16)       -180.0            estimate D2E/DX2                !
 ! D36   D(13,11,14,17)         60.0            estimate D2E/DX2                !
 ! D37   D(11,14,17,18)         60.0            estimate D2E/DX2                !
 ! D38   D(11,14,17,19)        -60.0            estimate D2E/DX2                !
 ! D39   D(11,14,17,20)       -180.0            estimate D2E/DX2                !
 ! D40   D(15,14,17,18)        180.0            estimate D2E/DX2                !
 ! D41   D(15,14,17,19)         60.0            estimate D2E/DX2                !
 ! D42   D(15,14,17,20)        -60.0            estimate D2E/DX2                !
 ! D43   D(16,14,17,18)        -60.0            estimate D2E/DX2                !
 ! D44   D(16,14,17,19)        180.0            estimate D2E/DX2                !
 ! D45   D(16,14,17,20)         60.0            estimate D2E/DX2                !
 ! D46   D(14,17,20,21)         60.0            estimate D2E/DX2                !
 ! D47   D(14,17,20,22)        -60.0            estimate D2E/DX2                !
 ! D48   D(14,17,20,23)        180.0            estimate D2E/DX2                !
 ! D49   D(18,17,20,21)        180.0            estimate D2E/DX2                !
 ! D50   D(18,17,20,22)         60.0            estimate D2E/DX2                !
 ! D51   D(18,17,20,23)        -60.0            estimate D2E/DX2                !
 ! D52   D(19,17,20,21)        -60.0            estimate D2E/DX2                !
 ! D53   D(19,17,20,22)        180.0            estimate D2E/DX2                !
 ! D54   D(19,17,20,23)         60.0            estimate D2E/DX2                !
 ! D55   D(17,20,23,24)         60.0            estimate D2E/DX2                !
 ! D56   D(17,20,23,25)        180.0            estimate D2E/DX2                !
 ! D57   D(17,20,23,26)        -60.0            estimate D2E/DX2                !
 ! D58   D(21,20,23,24)        180.0            estimate D2E/DX2                !
 ! D59   D(21,20,23,25)        -60.0            estimate D2E/DX2                !
 ! D60   D(21,20,23,26)         60.0            estimate D2E/DX2                !
 ! D61   D(22,20,23,24)        -60.0            estimate D2E/DX2                !
 ! D62   D(22,20,23,25)         60.0            estimate D2E/DX2                !
 ! D63   D(22,20,23,26)        180.0            estimate D2E/DX2                !
 --------------------------------------------------------------------------------
 Trust Radius=3.00D-01 FncErr=1.00D-07 GrdErr=1.00D-06 EigMax=2.50D+02 EigMin=1.00D-04
 Number of steps in this run=    146 maximum allowed number of steps=    156.
 GradGradGradGradGradGradGradGradGradGradGradGradGradGradGradGradGradGrad

                          Input orientation:                          
 ---------------------------------------------------------------------
 Center     Atomic      Atomic             Coordinates (Angstroms)
 Number     Number       Type             X           Y           Z
 ---------------------------------------------------------------------
      1          6           0       -7.075472   -0.597693    0.000120
      2          1           0       -6.720353   -1.607044    0.001273
      3          1           0       -6.717265   -0.094566   -0.873636
      4          1           0       -8.145470   -0.596053   -0.000820
      5          6           0       -6.562130    0.128530    1.257371
      6          1           0       -6.917248    1.137881    1.256219
      7          1           0       -6.920336   -0.374598    2.131128
      8          6           0       -5.022132    0.126168    1.258725
      9          1           0       -4.663925    0.629296    0.384968
     10          1           0       -4.667013   -0.883183    1.259878
     11          6           0       -4.508790    0.852391    2.515976
     12          1           0       -4.866997    0.349264    3.389733
     13          1           0       -4.863908    1.861742    2.514824
     14          6           0       -2.968792    0.850030    2.517330
     15          1           0       -2.610585    1.353157    1.643573
     16          1           0       -2.613674   -0.159321    2.518483
     17          6           0       -2.455450    1.576253    3.774581
     18          1           0       -2.813657    1.073125    4.648338
     19          1           0       -2.810568    2.585604    3.773428
     20          6           0       -0.915452    1.573891    3.775935
     21          1           0       -0.557246    2.077019    2.902178
     22          1           0       -0.560334    0.564540    3.777088
     23          6           0       -0.402110    2.300114    5.033186
     24          1           0       -0.760317    1.796987    5.906943
     25          1           0        0.667888    2.298473    5.034127
     26          1           0       -0.757229    3.309465    5.032033
 ---------------------------------------------------------------------
                    Distance matrix (angstroms):
                    1          2          3          4          5
     1  C    0.000000
     2  H    1.070000   0.000000
     3  H    1.070000   1.747303   0.000000
     4  H    1.070000   1.747303   1.747303   0.000000
     5  C    1.540000   2.148263   2.148263   2.148263   0.000000
     6  H    2.148263   3.024610   2.468846   2.468846   1.070000
     7  H    2.148263   2.468846   3.024610   2.468846   1.070000
     8  C    2.514809   2.732978   2.732978   3.444314   1.540000
     9  H    2.732978   3.062243   2.514809   3.710993   2.148263
    10  H    2.732978   2.514809   3.062243   3.710993   2.148263
    11  C    3.875582   4.154945   4.154945   4.653783   2.514809
    12  H    4.154945   4.329403   4.668704   4.810184   2.732978
    13  H    4.154945   4.668704   4.329403   4.810184   2.732978
    14  C    5.029619   5.142175   5.142175   5.935506   3.875582
    15  H    5.142175   5.324484   5.029619   6.094128   4.154945
    16  H    5.142175   5.029619   5.324484   6.094128   4.154945
    17  C    6.349583   6.523851   6.523851   7.165815   5.029619
    18  H    6.523851   6.636324   6.862497   7.268361   5.142175
    19  H    6.523851   6.862497   6.636324   7.268361   5.142175
    20  C    7.544428   7.619928   7.619928   8.440717   6.349583
    21  H    7.619928   7.744125   7.544428   8.553003   6.523851
    22  H    7.619928   7.544428   7.744125   8.553003   6.523851
    23  C    8.846626   8.972527   8.972527   9.679289   7.544428
    24  H    8.972527   9.054634   9.221685   9.755450   7.619928
    25  H    9.679289   9.755450   9.755450  10.554822   8.440717
    26  H    8.972527   9.221685   9.054634   9.755450   7.619928
                    6          7          8          9         10
     6  H    0.000000
     7  H    1.747303   0.000000
     8  C    2.148263   2.148263   0.000000
     9  H    2.468846   3.024610   1.070000   0.000000
    10  H    3.024610   2.468846   1.070000   1.747303   0.000000
    11  C    2.732978   2.732978   1.540000   2.148263   2.148263
    12  H    3.062243   2.514809   2.148263   3.024610   2.468846
    13  H    2.514809   3.062243   2.148263   2.468846   3.024610
    14  C    4.154945   4.154945   2.514809   2.732978   2.732978
    15  H    4.329403   4.668704   2.732978   2.514809   3.062243
    16  H    4.668704   4.329403   2.732978   3.062243   2.514809
    17  C    5.142175   5.142175   3.875582   4.154945   4.154945
    18  H    5.324484   5.029619   4.154945   4.668704   4.329403
    19  H    5.029619   5.324484   4.154945   4.329403   4.668704
    20  C    6.523851   6.523851   5.029619   5.142175   5.142175
    21  H    6.636324   6.862497   5.142175   5.029619   5.324484
    22  H    6.862497   6.636324   5.142175   5.324484   5.029619
    23  C    7.619928   7.619928   6.349583   6.523851   6.523851
    24  H    7.744125   7.544428   6.523851   6.862497   6.636324
    25  H    8.553003   8.553003   7.165815   7.268361   7.268361
    26  H    7.544428   7.744125   6.523851   6.636324   6.862497
                   11         12         13         14         15
    11  C    0.000000
    12  H    1.070000   0.000000
    13  H    1.070000   1.747303   0.000000
    14  C    1.540000   2.148263   2.148263   0.000000
    15  H    2.148263   3.024610   2.468846   1.070000   0.000000
    16  H    2.148263   2.468846   3.024610   1.070000   1.747303
    17  C    2.514809   2.732978   2.732978   1.540000   2.148263
    18  H    2.732978   2.514809   3.062243   2.148263   3.024610
    19  H    2.732978   3.062243   2.514809   2.148263   2.468846
    20  C    3.875582   4.154945   4.154945   2.514809   2.732978
    21  H    4.154945   4.668704   4.329403   2.732978   2.514809
    22  H    4.154945   4.329403   4.668704   2.732978   3.062243
    23  C    5.029619   5.142175   5.142175   3.875582   4.154945
    24  H    5.142175   5.029619   5.324484   4.154945   4.668704
    25  H    5.935506   6.094128   6.094128   4.653783   4.810184
    26  H    5.142175   5.324484   5.029619   4.154945   4.329403
                   16         17         18         19         20
    16  H    0.000000
    17  C    2.148263   0.000000
    18  H    2.468846   1.070000   0.000000
    19  H    3.024610   1.070000   1.747303   0.000000
    20  C    2.732978   1.540000   2.148263   2.148263   0.000000
    21  H    3.062243   2.148263   3.024610   2.468846   1.070000
    22  H    2.514809   2.148263   2.468846   3.024610   1.070000
    23  C    4.154945   2.514809   2.732978   2.732978   1.540000
    24  H    4.329403   2.732978   2.514809   3.062243   2.148263
    25  H    4.810184   3.444314   3.710993   3.710993   2.148263
    26  H    4.668704   2.732978   3.062243   2.514809   2.148263
                   21         22         23         24         25
    21  H    0.000000
    22  H    1.747303   0.000000
    23  C    2.148263   2.148263   0.000000
    24  H    3.024610   2.468846   1.070000   0.000000
    25  H    2.468846   2.468846   1.070000   1.747303   0.000000
    26  H    2.468846   3.024610   1.070000   1.747303   1.747303
                   26
    26  H    0.000000
 Stoichiometry    C8H18
 Framework group  C2H[SGH(C8H2),X(H16)]
 Deg. of freedom    21
 Full point group                 C2H     NOp   4
 Largest Abelian subgroup         C2H     NOp   4
 Largest concise Abelian subgroup C2H     NOp   4
                         Standard orientation:                         
 ---------------------------------------------------------------------
 Center     Atomic      Atomic             Coordinates (Angstroms)
 Number     Number       Type             X           Y           Z
 ---------------------------------------------------------------------
      1          6           0       -0.444560    4.400917    0.000000
      2          1           0       -1.062324    4.400917    0.873651
      3          1           0       -1.062324    4.400917   -0.873651
      4          1           0        0.173205    5.274568    0.000000
      5          6           0        0.444560    3.143512    0.000000
      6          1           0        1.062324    3.143512   -0.873651
      7          1           0        1.062324    3.143512    0.873651
      8          6           0       -0.444560    1.886107    0.000000
      9          1           0       -1.062324    1.886107   -0.873651
     10          1           0       -1.062324    1.886107    0.873651
     11          6           0        0.444560    0.628702    0.000000
     12          1           0        1.062324    0.628702    0.873651
     13          1           0        1.062324    0.628702   -0.873651
     14          6           0       -0.444560   -0.628702    0.000000
     15          1           0       -1.062324   -0.628702   -0.873651
     16          1           0       -1.062324   -0.628702    0.873651
     17          6           0        0.444560   -1.886107    0.000000
     18          1           0        1.062324   -1.886107    0.873651
     19          1           0        1.062324   -1.886107   -0.873651
     20          6           0       -0.444560   -3.143512    0.000000
     21          1           0       -1.062324   -3.143512   -0.873651
     22          1           0       -1.062324   -3.143512    0.873651
     23          6           0        0.444560   -4.400917    0.000000
     24          1           0        1.062324   -4.400917    0.873651
     25          1           0       -0.173205   -5.274568    0.000000
     26          1           0        1.062324   -4.400917   -0.873651
 ---------------------------------------------------------------------
 Rotational constants (GHZ):          10.4863212           0.5051585           0.4935269
 Standard basis: 6-31G (6D, 7F)
 There are    38 symmetry adapted cartesian basis functions of AG  symmetry.
 There are    16 symmetry adapted cartesian basis functions of BG  symmetry.
 There are    16 symmetry adapted cartesian basis functions of AU  symmetry.
 There are    38 symmetry adapted cartesian basis functions of BU  symmetry.
 There are    38 symmetry adapted basis functions of AG  symmetry.
 There are    16 symmetry adapted basis functions of BG  symmetry.
 There are    16 symmetry adapted basis functions of AU  symmetry.
 There are    38 symmetry adapted basis functions of BU  symmetry.
   108 basis functions,   248 primitive gaussians,   108 cartesian basis functions
    33 alpha electrons       33 beta electrons
       nuclear repulsion energy       378.3578159233 Hartrees.
 NAtoms=   26 NActive=   26 NUniq=    9 SFac= 4.00D+00 NAtFMM=   60 NAOKFM=F Big=F
 Integral buffers will be    131072 words long.
 Raffenetti 2 integral format.
 Two-electron integral symmetry is turned on.
 One-electron integrals computed using PRISM.
 NBasis=   108 RedAO= T EigKep=  3.43D-03  NBF=    38    16    16    38
 NBsUse=   108 1.00D-06 EigRej= -1.00D+00 NBFU=    38    16    16    38
 ExpMin= 1.61D-01 ExpMax= 3.05D+03 ExpMxC= 4.57D+02 IAcc=3 IRadAn=         5 AccDes= 0.00D+00
 Harris functional with IExCor=  402 and IRadAn=       5 diagonalized for initial guess.
 HarFok:  IExCor=  402 AccDes= 0.00D+00 IRadAn=         5 IDoV= 1 UseB2=F ITyADJ=14
 ICtDFT=  3500011 ScaDFX=  1.000000  1.000000  1.000000  1.000000
 FoFCou: FMM=F IPFlag=           0 FMFlag=      100000 FMFlg1=           0
         NFxFlg=           0 DoJE=T BraDBF=F KetDBF=T FulRan=T
         wScrn=  0.000000 ICntrl=       500 IOpCl=  0 I1Cent=   200000004 NGrid=           0
         NMat0=    1 NMatS0=      1 NMatT0=    0 NMatD0=    1 NMtDS0=    0 NMtDT0=    0
 Petite list used in FoFCou.
 Initial guess orbital symmetries:
       Occupied  (BU) (AG) (BU) (AG) (AG) (BU) (BU) (AG) (AG) (BU)
                 (AG) (BU) (AG) (BU) (BU) (AG) (AU) (BG) (BU) (AU)
                 (AG) (AG) (BG) (BU) (AU) (AG) (BU) (BU) (BG) (AG)
                 (AU) (BG) (AG)
       Virtual   (AG) (BU) (AG) (AU) (BU) (BU) (BG) (AG) (BU) (AG)
                 (BU) (AG) (BU) (AU) (AG) (BG) (AU) (BU) (BG) (AU)
                 (BG) (AG) (BU) (BU) (AG) (AG) (AG) (BU) (BU) (AU)
                 (BG) (BU) (AG) (AU) (BG) (AG) (AG) (BU) (AU) (BU)
                 (BU) (AG) (BG) (AG) (AU) (BG) (BU) (AU) (AG) (BU)
                 (BG) (BU) (AG) (AU) (AG) (BU) (BG) (BU) (AG) (BU)
                 (BU) (AG) (AU) (AG) (BG) (AG) (AU) (BU) (AG) (BU)
                 (BG) (AG) (BU) (AG) (BU)
 The electronic state of the initial guess is 1-AG.
 Keep R1 ints in memory in symmetry-blocked form, NReq=21806039.
 Requested convergence on RMS density matrix=1.00D-08 within 128 cycles.
 Requested convergence on MAX density matrix=1.00D-06.
 Requested convergence on             energy=1.00D-06.
 No special actions if energy rises.
 Integral accuracy reduced to 1.0D-05 until final iterations.
 Initial convergence to 1.0D-05 achieved.  Increase integral accuracy.
 SCF Done:  E(RB3LYP) =  -315.621961297     A.U. after   11 cycles
            NFock= 11  Conv=0.59D-08     -V/T= 2.0036

 **********************************************************************

            Population analysis using the SCF Density.

 **********************************************************************

 Orbital symmetries:
       Occupied  (BU) (AG) (BU) (AG) (AG) (BU) (BU) (AG) (AG) (BU)
                 (AG) (BU) (AG) (BU) (BU) (AG) (AU) (BG) (AU) (BU)
                 (AG) (AG) (BG) (BU) (AU) (AG) (BG) (BU) (BU) (AU)
                 (BG) (AG) (AG)
       Virtual   (AG) (BU) (AG) (AU) (BU) (BU) (BG) (AG) (BU) (AG)
                 (AU) (BG) (AU) (AG) (BG) (BU) (BU) (AG) (AU) (BG)
                 (BU) (AG) (BU) (BU) (AG) (AG) (AG) (BU) (BU) (AU)
                 (BG) (AU) (BG) (BU) (AG) (AG) (AU) (AG) (BU) (BU)
                 (BU) (BG) (AG) (AG) (AU) (BG) (BU) (BU) (AU) (AG)
                 (BG) (BU) (AG) (AU) (BU) (AG) (BG) (BU) (AG) (BU)
                 (BU) (AU) (AG) (AG) (BG) (AG) (AU) (BU) (AG) (BU)
                 (BG) (AG) (BU) (AG) (BU)
 The electronic state is 1-AG.
 Alpha  occ. eigenvalues --  -10.16119 -10.16119 -10.15872 -10.15872 -10.15842
 Alpha  occ. eigenvalues --  -10.15829 -10.15274 -10.15274  -0.81045  -0.78626
 Alpha  occ. eigenvalues --   -0.74748  -0.69700  -0.64000  -0.59143  -0.58136
 Alpha  occ. eigenvalues --   -0.57495  -0.48978  -0.46776  -0.43457  -0.43260
 Alpha  occ. eigenvalues --   -0.41661  -0.40053  -0.39624  -0.38078  -0.36094
 Alpha  occ. eigenvalues --   -0.34833  -0.33723  -0.33630  -0.32878  -0.32796
 Alpha  occ. eigenvalues --   -0.32771  -0.32203  -0.27463
 Alpha virt. eigenvalues --    0.09045   0.10179   0.11843   0.12370   0.13476
 Alpha virt. eigenvalues --    0.15246   0.15316   0.16224   0.17967   0.19018
 Alpha virt. eigenvalues --    0.19073   0.20180   0.20532   0.20566   0.20879
 Alpha virt. eigenvalues --    0.21128   0.22264   0.22903   0.23106   0.23385
 Alpha virt. eigenvalues --    0.25317   0.25552   0.27335   0.31286   0.31440
 Alpha virt. eigenvalues --    0.49354   0.53962   0.54216   0.57015   0.57184
 Alpha virt. eigenvalues --    0.57588   0.59710   0.60359   0.61106   0.61364
 Alpha virt. eigenvalues --    0.64443   0.66734   0.67942   0.69877   0.70723
 Alpha virt. eigenvalues --    0.73720   0.76400   0.77010   0.79452   0.83921
 Alpha virt. eigenvalues --    0.84835   0.85059   0.90192   0.90306   0.91690
 Alpha virt. eigenvalues --    0.93099   0.96870   0.97167   0.97321   0.99195
 Alpha virt. eigenvalues --    0.99585   1.01387   1.02046   1.02924   1.03646
 Alpha virt. eigenvalues --    1.04274   1.04345   1.04765   1.05817   1.07850
 Alpha virt. eigenvalues --    1.14914   1.21593   1.28685   1.38908   1.45487
 Alpha virt. eigenvalues --    1.47317   1.49231   1.52852   1.68430   1.97456
          Condensed to atoms (all electrons):
               1          2          3          4          5          6
     1  C    5.081360   0.382040   0.382040   0.369239   0.326825  -0.041896
     2  H    0.382040   0.592897  -0.034031  -0.032628  -0.039250   0.005727
     3  H    0.382040  -0.034031   0.592897  -0.032628  -0.039250  -0.005144
     4  H    0.369239  -0.032628  -0.032628   0.601952  -0.032719  -0.002704
     5  C    0.326825  -0.039250  -0.039250  -0.032719   5.057327   0.383650
     6  H   -0.041896   0.005727  -0.005144  -0.002704   0.383650   0.619693
     7  H   -0.041896  -0.005144   0.005727  -0.002704   0.383650  -0.040455
     8  C   -0.053281  -0.005318  -0.005318   0.005310   0.335421  -0.043036
     9  H   -0.003060  -0.000617   0.005529   0.000011  -0.043887  -0.006114
    10  H   -0.003060   0.005529  -0.000617   0.000011  -0.043887   0.006191
    11  C    0.005439   0.000084   0.000084  -0.000233  -0.045564  -0.003573
    12  H    0.000061   0.000002   0.000008   0.000003  -0.003536  -0.000621
    13  H    0.000061   0.000008   0.000002   0.000003  -0.003536   0.005298
    14  C   -0.000231   0.000001   0.000001   0.000003   0.005250   0.000064
    15  H    0.000002   0.000001  -0.000003   0.000000   0.000057   0.000005
    16  H    0.000002  -0.000003   0.000001   0.000000   0.000057   0.000005
    17  C    0.000002   0.000000   0.000000   0.000000  -0.000218   0.000002
    18  H    0.000000   0.000000   0.000000   0.000000   0.000002   0.000001
    19  H    0.000000   0.000000   0.000000   0.000000   0.000002  -0.000003
    20  C    0.000000   0.000000   0.000000   0.000000   0.000002   0.000000
    21  H    0.000000   0.000000   0.000000   0.000000   0.000000   0.000000
    22  H    0.000000   0.000000   0.000000   0.000000   0.000000   0.000000
    23  C    0.000000   0.000000   0.000000   0.000000   0.000000   0.000000
    24  H    0.000000   0.000000   0.000000   0.000000   0.000000   0.000000
    25  H    0.000000   0.000000   0.000000   0.000000   0.000000   0.000000
    26  H    0.000000   0.000000   0.000000   0.000000   0.000000   0.000000
               7          8          9         10         11         12
     1  C   -0.041896  -0.053281  -0.003060  -0.003060   0.005439   0.000061
     2  H   -0.005144  -0.005318  -0.000617   0.005529   0.000084   0.000002
     3  H    0.005727  -0.005318   0.005529  -0.000617   0.000084   0.000008
     4  H   -0.002704   0.005310   0.000011   0.000011  -0.000233   0.000003
     5  C    0.383650   0.335421  -0.043887  -0.043887  -0.045564  -0.003536
     6  H   -0.040455  -0.043036  -0.006114   0.006191  -0.003573  -0.000621
     7  H    0.619693  -0.043036   0.006191  -0.006114  -0.003573   0.005298
     8  C   -0.043036   5.088760   0.381373   0.381373   0.321517  -0.042909
     9  H    0.006191   0.381373   0.623988  -0.041522  -0.042768   0.006162
    10  H   -0.006114   0.381373  -0.041522   0.623988  -0.042768  -0.006071
    11  C   -0.003573   0.321517  -0.042768  -0.042768   5.101368   0.381309
    12  H    0.005298  -0.042909   0.006162  -0.006071   0.381309   0.623558
    13  H   -0.000621  -0.042909  -0.006071   0.006162   0.381309  -0.041357
    14  C    0.000064  -0.045337  -0.003444  -0.003444   0.318409  -0.042953
    15  H    0.000005  -0.003474   0.005211  -0.000608  -0.042953   0.006152
    16  H    0.000005  -0.003474  -0.000608   0.005211  -0.042953  -0.006067
    17  C    0.000002   0.005255   0.000068   0.000068  -0.045337  -0.003474
    18  H   -0.000003   0.000068   0.000004   0.000006  -0.003444   0.005211
    19  H    0.000001   0.000068   0.000006   0.000004  -0.003444  -0.000608
    20  C    0.000000  -0.000218   0.000002   0.000002   0.005250   0.000057
    21  H    0.000000   0.000002  -0.000003   0.000001   0.000064   0.000005
    22  H    0.000000   0.000002   0.000001  -0.000003   0.000064   0.000005
    23  C    0.000000   0.000002   0.000000   0.000000  -0.000231   0.000002
    24  H    0.000000   0.000000   0.000000   0.000000   0.000001  -0.000003
    25  H    0.000000   0.000000   0.000000   0.000000   0.000003   0.000000
    26  H    0.000000   0.000000   0.000000   0.000000   0.000001   0.000001
              13         14         15         16         17         18
     1  C    0.000061  -0.000231   0.000002   0.000002   0.000002   0.000000
     2  H    0.000008   0.000001   0.000001  -0.000003   0.000000   0.000000
     3  H    0.000002   0.000001  -0.000003   0.000001   0.000000   0.000000
     4  H    0.000003   0.000003   0.000000   0.000000   0.000000   0.000000
     5  C   -0.003536   0.005250   0.000057   0.000057  -0.000218   0.000002
     6  H    0.005298   0.000064   0.000005   0.000005   0.000002   0.000001
     7  H   -0.000621   0.000064   0.000005   0.000005   0.000002  -0.000003
     8  C   -0.042909  -0.045337  -0.003474  -0.003474   0.005255   0.000068
     9  H   -0.006071  -0.003444   0.005211  -0.000608   0.000068   0.000004
    10  H    0.006162  -0.003444  -0.000608   0.005211   0.000068   0.000006
    11  C    0.381309   0.318409  -0.042953  -0.042953  -0.045337  -0.003444
    12  H   -0.041357  -0.042953   0.006152  -0.006067  -0.003474   0.005211
    13  H    0.623558  -0.042953  -0.006067   0.006152  -0.003474  -0.000608
    14  C   -0.042953   5.101368   0.381309   0.381309   0.321517  -0.042768
    15  H   -0.006067   0.381309   0.623558  -0.041357  -0.042909   0.006162
    16  H    0.006152   0.381309  -0.041357   0.623558  -0.042909  -0.006071
    17  C   -0.003474   0.321517  -0.042909  -0.042909   5.088760   0.381373
    18  H   -0.000608  -0.042768   0.006162  -0.006071   0.381373   0.623988
    19  H    0.005211  -0.042768  -0.006071   0.006162   0.381373  -0.041522
    20  C    0.000057  -0.045564  -0.003536  -0.003536   0.335421  -0.043887
    21  H    0.000005  -0.003573   0.005298  -0.000621  -0.043036   0.006191
    22  H    0.000005  -0.003573  -0.000621   0.005298  -0.043036  -0.006114
    23  C    0.000002   0.005439   0.000061   0.000061  -0.053281  -0.003060
    24  H    0.000001   0.000084   0.000008   0.000002  -0.005318   0.005529
    25  H    0.000000  -0.000233   0.000003   0.000003   0.005310   0.000011
    26  H   -0.000003   0.000084   0.000002   0.000008  -0.005318  -0.000617
              19         20         21         22         23         24
     1  C    0.000000   0.000000   0.000000   0.000000   0.000000   0.000000
     2  H    0.000000   0.000000   0.000000   0.000000   0.000000   0.000000
     3  H    0.000000   0.000000   0.000000   0.000000   0.000000   0.000000
     4  H    0.000000   0.000000   0.000000   0.000000   0.000000   0.000000
     5  C    0.000002   0.000002   0.000000   0.000000   0.000000   0.000000
     6  H   -0.000003   0.000000   0.000000   0.000000   0.000000   0.000000
     7  H    0.000001   0.000000   0.000000   0.000000   0.000000   0.000000
     8  C    0.000068  -0.000218   0.000002   0.000002   0.000002   0.000000
     9  H    0.000006   0.000002  -0.000003   0.000001   0.000000   0.000000
    10  H    0.000004   0.000002   0.000001  -0.000003   0.000000   0.000000
    11  C   -0.003444   0.005250   0.000064   0.000064  -0.000231   0.000001
    12  H   -0.000608   0.000057   0.000005   0.000005   0.000002  -0.000003
    13  H    0.005211   0.000057   0.000005   0.000005   0.000002   0.000001
    14  C   -0.042768  -0.045564  -0.003573  -0.003573   0.005439   0.000084
    15  H   -0.006071  -0.003536   0.005298  -0.000621   0.000061   0.000008
    16  H    0.006162  -0.003536  -0.000621   0.005298   0.000061   0.000002
    17  C    0.381373   0.335421  -0.043036  -0.043036  -0.053281  -0.005318
    18  H   -0.041522  -0.043887   0.006191  -0.006114  -0.003060   0.005529
    19  H    0.623988  -0.043887  -0.006114   0.006191  -0.003060  -0.000617
    20  C   -0.043887   5.057327   0.383650   0.383650   0.326825  -0.039250
    21  H   -0.006114   0.383650   0.619693  -0.040455  -0.041896   0.005727
    22  H    0.006191   0.383650  -0.040455   0.619693  -0.041896  -0.005144
    23  C   -0.003060   0.326825  -0.041896  -0.041896   5.081360   0.382040
    24  H   -0.000617  -0.039250   0.005727  -0.005144   0.382040   0.592897
    25  H    0.000011  -0.032719  -0.002704  -0.002704   0.369239  -0.032628
    26  H    0.005529  -0.039250  -0.005144   0.005727   0.382040  -0.034031
              25         26
     1  C    0.000000   0.000000
     2  H    0.000000   0.000000
     3  H    0.000000   0.000000
     4  H    0.000000   0.000000
     5  C    0.000000   0.000000
     6  H    0.000000   0.000000
     7  H    0.000000   0.000000
     8  C    0.000000   0.000000
     9  H    0.000000   0.000000
    10  H    0.000000   0.000000
    11  C    0.000003   0.000001
    12  H    0.000000   0.000001
    13  H    0.000000  -0.000003
    14  C   -0.000233   0.000084
    15  H    0.000003   0.000002
    16  H    0.000003   0.000008
    17  C    0.005310  -0.005318
    18  H    0.000011  -0.000617
    19  H    0.000011   0.005529
    20  C   -0.032719  -0.039250
    21  H   -0.002704  -0.005144
    22  H   -0.002704   0.005727
    23  C    0.369239   0.382040
    24  H   -0.032628  -0.034031
    25  H    0.601952  -0.032628
    26  H   -0.032628   0.592897
 Mulliken charges:
               1
     1  C   -0.403646
     2  H    0.130703
     3  H    0.130703
     4  H    0.127087
     5  C   -0.240394
     6  H    0.122910
     7  H    0.122910
     8  C   -0.230840
     9  H    0.119549
    10  H    0.119549
    11  C   -0.238057
    12  H    0.119764
    13  H    0.119764
    14  C   -0.238057
    15  H    0.119764
    16  H    0.119764
    17  C   -0.230840
    18  H    0.119549
    19  H    0.119549
    20  C   -0.240394
    21  H    0.122910
    22  H    0.122910
    23  C   -0.403646
    24  H    0.130703
    25  H    0.127087
    26  H    0.130703
 Sum of Mulliken charges =   0.00000
 Mulliken charges with hydrogens summed into heavy atoms:
               1
     1  C   -0.015153
     5  C    0.005426
     8  C    0.008257
    11  C    0.001471
    14  C    0.001471
    17  C    0.008257
    20  C    0.005426
    23  C   -0.015153
 Electronic spatial extent (au):  <R**2>=           2360.9658
 Charge=              0.0000 electrons
 Dipole moment (field-independent basis, Debye):
    X=              0.0000    Y=              0.0000    Z=              0.0000  Tot=              0.0000
 Quadrupole moment (field-independent basis, Debye-Ang):
   XX=            -55.0634   YY=            -57.1324   ZZ=            -53.2364
   XY=              0.6113   XZ=              0.0000   YZ=              0.0000
 Traceless Quadrupole moment (field-independent basis, Debye-Ang):
   XX=              0.0807   YY=             -1.9883   ZZ=              1.9077
   XY=              0.6113   XZ=              0.0000   YZ=              0.0000
 Octapole moment (field-independent basis, Debye-Ang**2):
  XXX=              0.0000  YYY=              0.0000  ZZZ=              0.0000  XYY=              0.0000
  XXY=              0.0000  XXZ=              0.0000  XZZ=              0.0000  YZZ=              0.0000
  YYZ=              0.0000  XYZ=              0.0000
 Hexadecapole moment (field-independent basis, Debye-Ang**3):
 XXXX=           -193.7055 YYYY=          -3063.9436 ZZZZ=           -108.0365 XXXY=             56.3592
 XXXZ=              0.0000 YYYX=             87.7929 YYYZ=              0.0000 ZZZX=              0.0000
 ZZZY=              0.0000 XXYY=           -530.3719 XXZZ=            -46.2487 YYZZ=           -506.0159
 XXYZ=              0.0000 YYXZ=              0.0000 ZZXY=             16.3190
 N-N= 3.783578159233D+02 E-N=-1.486993373093D+03  KE= 3.144941200369D+02
 Symmetry AG   KE= 1.507538871562D+02
 Symmetry BG   KE= 8.106385162118D+00
 Symmetry AU   KE= 7.911264789323D+00
 Symmetry BU   KE= 1.477225829293D+02
 Calling FoFJK, ICntrl=      2127 FMM=F ISym2X=1 I1Cent= 0 IOpClX= 0 NMat=1 NMatS=1 NMatT=0.
 ***** Axes restored to original set *****
 -------------------------------------------------------------------
 Center     Atomic                   Forces (Hartrees/Bohr)
 Number     Number              X              Y              Z
 -------------------------------------------------------------------
      1        6          -0.000036140    0.012030940    0.020798059
      2        1           0.004412952   -0.017592472   -0.002947242
      3        1           0.004461535    0.006202438   -0.016711670
      4        1          -0.018430532   -0.002681928   -0.004701368
      5        6           0.017449478   -0.016798227   -0.028977924
      6        1          -0.007366252    0.017707739    0.003100130
      7        1          -0.007414899   -0.006118338    0.016882586
      8        6          -0.025740656    0.017326035    0.029861095
      9        1           0.007775505    0.006715034   -0.016777994
     10        1           0.007725215   -0.017915661   -0.002530098
     11        6           0.024758138   -0.017728593   -0.030560475
     12        1          -0.007828591   -0.006711000    0.016625371
     13        1          -0.007778584    0.017781510    0.002457409
     14        6          -0.024758138    0.017728593    0.030560475
     15        1           0.007828591    0.006711000   -0.016625371
     16        1           0.007778584   -0.017781510   -0.002457409
     17        6           0.025740656   -0.017326035   -0.029861095
     18        1          -0.007775505   -0.006715034    0.016777994
     19        1          -0.007725215    0.017915661    0.002530098
     20        6          -0.017449478    0.016798227    0.028977924
     21        1           0.007414899    0.006118338   -0.016882586
     22        1           0.007366252   -0.017707739   -0.003100130
     23        6           0.000036140   -0.012030940   -0.020798059
     24        1          -0.004461535   -0.006202438    0.016711670
     25        1           0.018430532    0.002681928    0.004701368
     26        1          -0.004412952    0.017592472    0.002947242
 -------------------------------------------------------------------
 Cartesian Forces:  Max     0.030560475 RMS     0.015240027

 GradGradGradGradGradGradGradGradGradGradGradGradGradGradGradGradGradGrad
 Berny optimization.
 FormGI is forming the generalized inverse of G from B-inverse, IUseBI=4.
 Internal  Forces:  Max     0.019461359 RMS     0.008078303
 Search for a local minimum.
 Step number   1 out of a maximum of  146
 All quantities printed in internal units (Hartrees-Bohrs-Radians)
 Mixed Optimization -- RFO/linear search
 Second derivative matrix not updated -- first step.
 ITU=  0
     Eigenvalues ---    0.00237   0.00237   0.00237   0.00237   0.00237
     Eigenvalues ---    0.00237   0.00237   0.03840   0.03840   0.03840
     Eigenvalues ---    0.03840   0.03840   0.03840   0.04896   0.04896
     Eigenvalues ---    0.04896   0.04896   0.04896   0.04896   0.05720
     Eigenvalues ---    0.05720   0.05720   0.05720   0.07655   0.07655
     Eigenvalues ---    0.07655   0.07655   0.07655   0.07655   0.11701
     Eigenvalues ---    0.11701   0.11701   0.11701   0.11701   0.11701
     Eigenvalues ---    0.16000   0.16000   0.16000   0.16000   0.16000
     Eigenvalues ---    0.16000   0.21948   0.21948   0.21948   0.21948
     Eigenvalues ---    0.21948   0.21948   0.28519   0.28519   0.28519
     Eigenvalues ---    0.28519   0.28519   0.28519   0.28519   0.37230
     Eigenvalues ---    0.37230   0.37230   0.37230   0.37230   0.37230
     Eigenvalues ---    0.37230   0.37230   0.37230   0.37230   0.37230
     Eigenvalues ---    0.37230   0.37230   0.37230   0.37230   0.37230
     Eigenvalues ---    0.37230   0.37230
 RFO step:  Lambda=-2.78975344D-02 EMin= 2.36824143D-03
 Linear search not attempted -- first point.
 Iteration  1 RMS(Cart)=  0.08680851 RMS(Int)=  0.00060528
 Iteration  2 RMS(Cart)=  0.00110802 RMS(Int)=  0.00019043
 Iteration  3 RMS(Cart)=  0.00000051 RMS(Int)=  0.00019043
 ClnCor:  largest displacement from symmetrization is 3.22D-08 for atom    26.
 Variable       Old X    -DE/DX   Delta X   Delta X   Delta X     New X
                                 (Linear)    (Quad)   (Total)
    R1        2.02201   0.01806   0.00000   0.04512   0.04512   2.06713
    R2        2.02201   0.01806   0.00000   0.04512   0.04512   2.06713
    R3        2.02201   0.01843   0.00000   0.04605   0.04605   2.06806
    R4        2.91018   0.00707   0.00000   0.02258   0.02258   2.93275
    R5        2.02201   0.01915   0.00000   0.04784   0.04784   2.06985
    R6        2.02201   0.01915   0.00000   0.04784   0.04784   2.06985
    R7        2.91018   0.00692   0.00000   0.02211   0.02211   2.93229
    R8        2.02201   0.01946   0.00000   0.04863   0.04863   2.07064
    R9        2.02201   0.01946   0.00000   0.04863   0.04863   2.07064
   R10        2.91018   0.00789   0.00000   0.02519   0.02519   2.93537
   R11        2.02201   0.01935   0.00000   0.04836   0.04836   2.07036
   R12        2.02201   0.01935   0.00000   0.04836   0.04836   2.07036
   R13        2.91018   0.00801   0.00000   0.02559   0.02559   2.93577
   R14        2.02201   0.01935   0.00000   0.04836   0.04836   2.07036
   R15        2.02201   0.01935   0.00000   0.04836   0.04836   2.07036
   R16        2.91018   0.00789   0.00000   0.02519   0.02519   2.93537
   R17        2.02201   0.01946   0.00000   0.04863   0.04863   2.07064
   R18        2.02201   0.01946   0.00000   0.04863   0.04863   2.07064
   R19        2.91018   0.00692   0.00000   0.02211   0.02211   2.93229
   R20        2.02201   0.01915   0.00000   0.04784   0.04784   2.06985
   R21        2.02201   0.01915   0.00000   0.04784   0.04784   2.06985
   R22        2.91018   0.00707   0.00000   0.02258   0.02258   2.93275
   R23        2.02201   0.01806   0.00000   0.04512   0.04512   2.06713
   R24        2.02201   0.01843   0.00000   0.04605   0.04605   2.06806
   R25        2.02201   0.01806   0.00000   0.04512   0.04512   2.06713
    A1        1.91063  -0.00343   0.00000  -0.02079  -0.02084   1.88979
    A2        1.91063  -0.00446   0.00000  -0.02250  -0.02284   1.88779
    A3        1.91063   0.00294   0.00000   0.01502   0.01481   1.92545
    A4        1.91063  -0.00446   0.00000  -0.02250  -0.02284   1.88779
    A5        1.91063   0.00294   0.00000   0.01502   0.01481   1.92545
    A6        1.91063   0.00648   0.00000   0.03575   0.03539   1.94603
    A7        1.91063  -0.00283   0.00000  -0.00504  -0.00520   1.90543
    A8        1.91063  -0.00283   0.00000  -0.00504  -0.00520   1.90543
    A9        1.91063   0.01249   0.00000   0.05856   0.05827   1.96891
   A10        1.91063   0.00023   0.00000  -0.02505  -0.02535   1.88528
   A11        1.91063  -0.00353   0.00000  -0.01171  -0.01212   1.89851
   A12        1.91063  -0.00353   0.00000  -0.01171  -0.01212   1.89851
   A13        1.91063  -0.00399   0.00000  -0.01188  -0.01223   1.89841
   A14        1.91063  -0.00399   0.00000  -0.01188  -0.01223   1.89841
   A15        1.91063   0.01490   0.00000   0.06851   0.06822   1.97885
   A16        1.91063   0.00080   0.00000  -0.02341  -0.02383   1.88681
   A17        1.91063  -0.00386   0.00000  -0.01067  -0.01096   1.89968
   A18        1.91063  -0.00386   0.00000  -0.01067  -0.01096   1.89968
   A19        1.91063  -0.00399   0.00000  -0.01154  -0.01186   1.89877
   A20        1.91063  -0.00399   0.00000  -0.01154  -0.01186   1.89877
   A21        1.91063   0.01512   0.00000   0.06946   0.06917   1.97980
   A22        1.91063   0.00084   0.00000  -0.02337  -0.02380   1.88683
   A23        1.91063  -0.00399   0.00000  -0.01150  -0.01183   1.89881
   A24        1.91063  -0.00399   0.00000  -0.01150  -0.01183   1.89881
   A25        1.91063  -0.00399   0.00000  -0.01150  -0.01183   1.89881
   A26        1.91063  -0.00399   0.00000  -0.01150  -0.01183   1.89881
   A27        1.91063   0.01512   0.00000   0.06946   0.06917   1.97980
   A28        1.91063   0.00084   0.00000  -0.02337  -0.02380   1.88683
   A29        1.91063  -0.00399   0.00000  -0.01154  -0.01186   1.89877
   A30        1.91063  -0.00399   0.00000  -0.01154  -0.01186   1.89877
   A31        1.91063  -0.00386   0.00000  -0.01067  -0.01096   1.89968
   A32        1.91063  -0.00386   0.00000  -0.01067  -0.01096   1.89968
   A33        1.91063   0.01490   0.00000   0.06851   0.06822   1.97885
   A34        1.91063   0.00080   0.00000  -0.02341  -0.02383   1.88681
   A35        1.91063  -0.00399   0.00000  -0.01188  -0.01223   1.89841
   A36        1.91063  -0.00399   0.00000  -0.01188  -0.01223   1.89841
   A37        1.91063  -0.00353   0.00000  -0.01171  -0.01212   1.89851
   A38        1.91063  -0.00353   0.00000  -0.01171  -0.01212   1.89851
   A39        1.91063   0.01249   0.00000   0.05856   0.05827   1.96891
   A40        1.91063   0.00023   0.00000  -0.02505  -0.02535   1.88528
   A41        1.91063  -0.00283   0.00000  -0.00504  -0.00520   1.90543
   A42        1.91063  -0.00283   0.00000  -0.00504  -0.00520   1.90543
   A43        1.91063   0.00294   0.00000   0.01502   0.01481   1.92545
   A44        1.91063   0.00648   0.00000   0.03575   0.03539   1.94603
   A45        1.91063   0.00294   0.00000   0.01502   0.01481   1.92545
   A46        1.91063  -0.00446   0.00000  -0.02250  -0.02284   1.88779
   A47        1.91063  -0.00343   0.00000  -0.02079  -0.02084   1.88979
   A48        1.91063  -0.00446   0.00000  -0.02250  -0.02284   1.88779
    D1       -3.14159   0.00129   0.00000   0.01490   0.01489  -3.12670
    D2       -1.04720  -0.00189   0.00000  -0.02196  -0.02210  -1.06930
    D3        1.04720  -0.00030   0.00000  -0.00353  -0.00360   1.04359
    D4        1.04720   0.00189   0.00000   0.02196   0.02210   1.06930
    D5        3.14159  -0.00129   0.00000  -0.01490  -0.01489   3.12670
    D6       -1.04720   0.00030   0.00000   0.00353   0.00360  -1.04359
    D7       -1.04720   0.00159   0.00000   0.01843   0.01850  -1.02870
    D8        1.04720  -0.00159   0.00000  -0.01843  -0.01850   1.02870
    D9        3.14159   0.00000   0.00000   0.00000   0.00000   3.14159
   D10        1.04720  -0.00195   0.00000  -0.02161  -0.02158   1.02562
   D11       -1.04720   0.00195   0.00000   0.02161   0.02158  -1.02562
   D12        3.14159   0.00000   0.00000   0.00000   0.00000   3.14159
   D13       -1.04720  -0.00397   0.00000  -0.04412  -0.04401  -1.09120
   D14        3.14159  -0.00007   0.00000  -0.00090  -0.00086   3.14074
   D15        1.04720  -0.00202   0.00000  -0.02251  -0.02243   1.02477
   D16        3.14159   0.00007   0.00000   0.00090   0.00086  -3.14074
   D17        1.04720   0.00397   0.00000   0.04412   0.04401   1.09120
   D18       -1.04720   0.00202   0.00000   0.02251   0.02243  -1.02477
   D19        1.04720  -0.00193   0.00000  -0.02138  -0.02136   1.02584
   D20       -1.04720   0.00193   0.00000   0.02138   0.02136  -1.02584
   D21        3.14159   0.00000   0.00000   0.00000   0.00000   3.14159
   D22        3.14159  -0.00005   0.00000  -0.00051  -0.00049   3.14110
   D23        1.04720   0.00380   0.00000   0.04225   0.04222   1.08942
   D24       -1.04720   0.00187   0.00000   0.02087   0.02086  -1.02633
   D25       -1.04720  -0.00380   0.00000  -0.04225  -0.04222  -1.08942
   D26        3.14159   0.00005   0.00000   0.00051   0.00049  -3.14110
   D27        1.04720  -0.00187   0.00000  -0.02087  -0.02086   1.02633
   D28        1.04720  -0.00193   0.00000  -0.02136  -0.02134   1.02586
   D29       -1.04720   0.00193   0.00000   0.02136   0.02134  -1.02586
   D30        3.14159   0.00000   0.00000   0.00000   0.00000   3.14159
   D31        3.14159   0.00000   0.00000   0.00000   0.00000   3.14159
   D32        1.04720   0.00385   0.00000   0.04272   0.04267   1.08987
   D33       -1.04720   0.00193   0.00000   0.02136   0.02134  -1.02586
   D34       -1.04720  -0.00385   0.00000  -0.04272  -0.04267  -1.08987
   D35        3.14159   0.00000   0.00000   0.00000   0.00000   3.14159
   D36        1.04720  -0.00193   0.00000  -0.02136  -0.02134   1.02586
   D37        1.04720  -0.00187   0.00000  -0.02087  -0.02086   1.02633
   D38       -1.04720   0.00187   0.00000   0.02087   0.02086  -1.02633
   D39        3.14159   0.00000   0.00000   0.00000   0.00000   3.14159
   D40       -3.14159   0.00005   0.00000   0.00051   0.00049  -3.14110
   D41        1.04720   0.00380   0.00000   0.04225   0.04222   1.08942
   D42       -1.04720   0.00193   0.00000   0.02138   0.02136  -1.02584
   D43       -1.04720  -0.00380   0.00000  -0.04225  -0.04222  -1.08942
   D44        3.14159  -0.00005   0.00000  -0.00051  -0.00049   3.14110
   D45        1.04720  -0.00193   0.00000  -0.02138  -0.02136   1.02584
   D46        1.04720  -0.00202   0.00000  -0.02251  -0.02243   1.02477
   D47       -1.04720   0.00202   0.00000   0.02251   0.02243  -1.02477
   D48        3.14159   0.00000   0.00000   0.00000   0.00000   3.14159
   D49        3.14159  -0.00007   0.00000  -0.00090  -0.00086   3.14074
   D50        1.04720   0.00397   0.00000   0.04412   0.04401   1.09120
   D51       -1.04720   0.00195   0.00000   0.02161   0.02158  -1.02562
   D52       -1.04720  -0.00397   0.00000  -0.04412  -0.04401  -1.09120
   D53        3.14159   0.00007   0.00000   0.00090   0.00086  -3.14074
   D54        1.04720  -0.00195   0.00000  -0.02161  -0.02158   1.02562
   D55        1.04720  -0.00030   0.00000  -0.00353  -0.00360   1.04359
   D56        3.14159   0.00000   0.00000   0.00000   0.00000   3.14159
   D57       -1.04720   0.00030   0.00000   0.00353   0.00360  -1.04359
   D58        3.14159   0.00129   0.00000   0.01490   0.01489  -3.12670
   D59       -1.04720   0.00159   0.00000   0.01843   0.01850  -1.02870
   D60        1.04720   0.00189   0.00000   0.02196   0.02210   1.06930
   D61       -1.04720  -0.00189   0.00000  -0.02196  -0.02210  -1.06930
   D62        1.04720  -0.00159   0.00000  -0.01843  -0.01850   1.02870
   D63        3.14159  -0.00129   0.00000  -0.01490  -0.01489   3.12670
         Item               Value     Threshold  Converged?
 Maximum Force            0.019461     0.000450     NO 
 RMS     Force            0.008078     0.000300     NO 
 Maximum Displacement     0.250329     0.001800     NO 
 RMS     Displacement     0.085763     0.001200     NO 
 Predicted change in Energy=-1.555583D-02
 GradGradGradGradGradGradGradGradGradGradGradGradGradGradGradGradGradGrad

                          Input orientation:                          
 ---------------------------------------------------------------------
 Center     Atomic      Atomic             Coordinates (Angstroms)
 Number     Number       Type             X           Y           Z
 ---------------------------------------------------------------------
      1          6           0       -7.183648   -0.635117   -0.064958
      2          1           0       -6.837775   -1.672642   -0.086849
      3          1           0       -6.834642   -0.137892   -0.974643
      4          1           0       -8.277939   -0.639995   -0.077252
      5          6           0       -6.632188    0.090417    1.191239
      6          1           0       -7.001724    1.121453    1.202395
      7          1           0       -7.004857   -0.412806    2.089905
      8          6           0       -5.081430    0.115107    1.239393
      9          1           0       -4.708750    0.619317    0.340775
     10          1           0       -4.711886   -0.916379    1.229116
     11          6           0       -4.515064    0.838483    2.491910
     12          1           0       -4.888596    0.334008    3.389850
     13          1           0       -4.885461    1.869515    2.501618
     14          6           0       -2.962518    0.863938    2.541396
     15          1           0       -2.588986    1.368413    1.643457
     16          1           0       -2.592121   -0.167094    2.531688
     17          6           0       -2.396152    1.587314    3.793913
     18          1           0       -2.768832    1.083104    4.692531
     19          1           0       -2.765696    2.618800    3.804191
     20          6           0       -0.845394    1.612004    3.842068
     21          1           0       -0.472725    2.115227    2.943402
     22          1           0       -0.475858    0.580968    3.830911
     23          6           0       -0.293934    2.337538    5.098264
     24          1           0       -0.642940    1.840313    6.007949
     25          1           0        0.800357    2.342416    5.110559
     26          1           0       -0.639807    3.375063    5.120156
 ---------------------------------------------------------------------
                    Distance matrix (angstroms):
                    1          2          3          4          5
     1  C    0.000000
     2  H    1.093876   0.000000
     3  H    1.093876   1.773033   0.000000
     4  H    1.094370   1.772152   1.772152   0.000000
     5  C    1.551947   2.187271   2.187271   2.202514   0.000000
     6  H    2.173665   3.081558   2.520587   2.523672   1.095316
     7  H    2.173665   2.520587   3.081558   2.523672   1.095316
     8  C    2.585245   2.835439   2.835439   3.538560   1.551702
     9  H    2.804166   3.157323   2.612107   3.807850   2.168556
    10  H    2.804166   2.612107   3.157323   3.807850   2.168556
    11  C    3.978745   4.283776   4.283776   4.790169   2.594911
    12  H    4.259362   4.462441   4.801934   4.945414   2.816618
    13  H    4.259362   4.801934   4.462441   4.945414   2.816618
    14  C    5.182489   5.325367   5.325367   6.113332   3.985942
    15  H    5.295634   5.504016   5.210470   6.273654   4.264418
    16  H    5.295634   5.210470   5.504016   6.273654   4.264418
    17  C    6.538364   6.739113   6.739113   7.385272   5.192169
    18  H    6.713910   6.855138   7.080855   7.488001   5.307542
    19  H    6.713910   7.080855   6.855138   7.488001   5.307542
    20  C    7.777395   7.882507   7.882507   8.699155   6.544395
    21  H    7.851822   8.002765   7.803948   8.811184   6.716317
    22  H    7.851822   7.803948   8.002765   8.811184   6.716317
    23  C    9.108442   9.262225   9.262225   9.969755   7.777395
    24  H    9.262225   9.373548   9.539761  10.073470   7.882507
    25  H    9.969755  10.073470  10.073470  10.873068   8.699155
    26  H    9.262225   9.539761   9.373548  10.073470   7.882507
                    6          7          8          9         10
     6  H    0.000000
     7  H    1.772466   0.000000
     8  C    2.168325   2.168325   0.000000
     9  H    2.500452   3.065426   1.095734   0.000000
    10  H    3.065426   2.500452   1.095734   1.774126   0.000000
    11  C    2.815387   2.815387   1.553333   2.170928   2.170928
    12  H    3.141709   2.593482   2.170153   3.067670   2.502692
    13  H    2.593482   3.141709   2.170153   2.502692   3.067670
    14  C    4.263147   4.263147   2.597257   2.819911   2.819911
    15  H    4.441597   4.782466   2.818922   2.598370   3.146214
    16  H    4.782466   4.441597   2.818922   3.146214   2.598370
    17  C    5.305119   5.305119   3.987942   4.267235   4.267235
    18  H    5.486338   5.191852   4.267235   4.787083   4.446194
    19  H    5.191852   5.486338   4.267235   4.446194   4.787083
    20  C    6.716317   6.716317   5.192169   5.307542   5.307542
    21  H    6.829826   7.056072   5.305119   5.191852   5.486338
    22  H    7.056072   6.829826   5.305119   5.486338   5.191852
    23  C    7.851822   7.851822   6.538364   6.713910   6.713910
    24  H    8.002765   7.803948   6.739113   7.080855   6.855138
    25  H    8.811184   8.811184   7.385272   7.488001   7.488001
    26  H    7.803948   8.002765   6.739113   6.855138   7.080855
                   11         12         13         14         15
    11  C    0.000000
    12  H    1.095590   0.000000
    13  H    1.095590   1.773908   0.000000
    14  C    1.553543   2.170363   2.170363   0.000000
    15  H    2.170363   3.067261   2.502268   1.095590   0.000000
    16  H    2.170363   2.502268   3.067261   1.095590   1.773908
    17  C    2.597257   2.818922   2.818922   1.553333   2.170153
    18  H    2.819911   2.598370   3.146214   2.170928   3.067670
    19  H    2.819911   3.146214   2.598370   2.170928   2.502692
    20  C    3.985942   4.264418   4.264418   2.594911   2.816618
    21  H    4.263147   4.782466   4.441597   2.815387   2.593482
    22  H    4.263147   4.441597   4.782466   2.815387   3.141709
    23  C    5.182489   5.295634   5.295634   3.978745   4.259362
    24  H    5.325367   5.210470   5.504016   4.283776   4.801934
    25  H    6.113332   6.273654   6.273654   4.790169   4.945414
    26  H    5.325367   5.504016   5.210470   4.283776   4.462441
                   16         17         18         19         20
    16  H    0.000000
    17  C    2.170153   0.000000
    18  H    2.502692   1.095734   0.000000
    19  H    3.067670   1.095734   1.774126   0.000000
    20  C    2.816618   1.551702   2.168556   2.168556   0.000000
    21  H    3.141709   2.168325   3.065426   2.500452   1.095316
    22  H    2.593482   2.168325   2.500452   3.065426   1.095316
    23  C    4.259362   2.585245   2.804166   2.804166   1.551947
    24  H    4.462441   2.835439   2.612107   3.157323   2.187271
    25  H    4.945414   3.538560   3.807850   3.807850   2.202514
    26  H    4.801934   2.835439   3.157323   2.612107   2.187271
                   21         22         23         24         25
    21  H    0.000000
    22  H    1.772466   0.000000
    23  C    2.173665   2.173665   0.000000
    24  H    3.081558   2.520587   1.093876   0.000000
    25  H    2.523672   2.523672   1.094370   1.772152   0.000000
    26  H    2.520587   3.081558   1.093876   1.773033   1.772152
                   26
    26  H    0.000000
 Stoichiometry    C8H18
 Framework group  C2H[SGH(C8H2),X(H16)]
 Deg. of freedom    21
 Full point group                 C2H     NOp   4
 Largest Abelian subgroup         C2H     NOp   4
 Largest concise Abelian subgroup C2H     NOp   4
                         Standard orientation:                         
 ---------------------------------------------------------------------
 Center     Atomic      Atomic             Coordinates (Angstroms)
 Number     Number       Type             X           Y           Z
 ---------------------------------------------------------------------
      1          6           0        0.164994    4.551231    0.000000
      2          1           0       -0.465908    4.663559    0.886516
      3          1           0       -0.465908    4.663559   -0.886516
      4          1           0        0.900704    5.361402    0.000000
      5          6           0        0.851611    3.159436    0.000000
      6          1           0        1.489446    3.072976   -0.886233
      7          1           0        1.489446    3.072976    0.886233
      8          6           0       -0.164994    1.987133    0.000000
      9          1           0       -0.802442    2.073221   -0.887063
     10          1           0       -0.802442    2.073221    0.887063
     11          6           0        0.508349    0.587329    0.000000
     12          1           0        1.145851    0.502356    0.886954
     13          1           0        1.145851    0.502356   -0.886954
     14          6           0       -0.508349   -0.587329    0.000000
     15          1           0       -1.145851   -0.502356   -0.886954
     16          1           0       -1.145851   -0.502356    0.886954
     17          6           0        0.164994   -1.987133    0.000000
     18          1           0        0.802442   -2.073221    0.887063
     19          1           0        0.802442   -2.073221   -0.887063
     20          6           0       -0.851611   -3.159436    0.000000
     21          1           0       -1.489446   -3.072976   -0.886233
     22          1           0       -1.489446   -3.072976    0.886233
     23          6           0       -0.164994   -4.551231    0.000000
     24          1           0        0.465908   -4.663559    0.886516
     25          1           0       -0.900704   -5.361402    0.000000
     26          1           0        0.465908   -4.663559   -0.886516
 ---------------------------------------------------------------------
 Rotational constants (GHZ):          10.6166057           0.4750768           0.4653452
 Standard basis: 6-31G (6D, 7F)
 There are    38 symmetry adapted cartesian basis functions of AG  symmetry.
 There are    16 symmetry adapted cartesian basis functions of BG  symmetry.
 There are    16 symmetry adapted cartesian basis functions of AU  symmetry.
 There are    38 symmetry adapted cartesian basis functions of BU  symmetry.
 There are    38 symmetry adapted basis functions of AG  symmetry.
 There are    16 symmetry adapted basis functions of BG  symmetry.
 There are    16 symmetry adapted basis functions of AU  symmetry.
 There are    38 symmetry adapted basis functions of BU  symmetry.
   108 basis functions,   248 primitive gaussians,   108 cartesian basis functions
    33 alpha electrons       33 beta electrons
       nuclear repulsion energy       370.3458627479 Hartrees.
 NAtoms=   26 NActive=   26 NUniq=    9 SFac= 4.00D+00 NAtFMM=   60 NAOKFM=F Big=F
 Integral buffers will be    131072 words long.
 Raffenetti 2 integral format.
 Two-electron integral symmetry is turned on.
 One-electron integrals computed using PRISM.
 NBasis=   108 RedAO= T EigKep=  4.12D-03  NBF=    38    16    16    38
 NBsUse=   108 1.00D-06 EigRej= -1.00D+00 NBFU=    38    16    16    38
 Initial guess from the checkpoint file:  "C:\Users\tkmeldrum\Documents\MDworking\C8H18.chk"
 B after Tr=     0.000000    0.000000    0.000000
         Rot=    0.997772    0.000000    0.000000    0.066715 Ang=   7.65 deg.
 Initial guess orbital symmetries:
       Occupied  (BU) (AG) (BU) (AG) (AG) (BU) (BU) (AG) (AG) (BU)
                 (AG) (BU) (AG) (BU) (BU) (AG) (AU) (BG) (AU) (BU)
                 (AG) (AG) (BG) (BU) (AU) (AG) (BG) (BU) (BU) (AU)
                 (BG) (AG) (AG)
       Virtual   (AG) (BU) (AG) (AU) (BU) (BU) (BG) (AG) (BU) (AG)
                 (AU) (BG) (AU) (AG) (BG) (BU) (BU) (AG) (AU) (BG)
                 (BU) (AG) (BU) (BU) (AG) (AG) (AG) (BU) (BU) (AU)
                 (BG) (AU) (BG) (BU) (AG) (AG) (AU) (AG) (BU) (BU)
                 (BU) (BG) (AG) (AG) (AU) (BG) (BU) (BU) (AU) (AG)
                 (BG) (BU) (AG) (AU) (BU) (AG) (BG) (BU) (AG) (BU)
                 (BU) (AU) (AG) (AG) (BG) (AG) (AU) (BU) (AG) (BU)
                 (BG) (AG) (BU) (AG) (BU)
 ExpMin= 1.61D-01 ExpMax= 3.05D+03 ExpMxC= 4.57D+02 IAcc=3 IRadAn=         5 AccDes= 0.00D+00
 Harris functional with IExCor=  402 and IRadAn=       5 diagonalized for initial guess.
 HarFok:  IExCor=  402 AccDes= 0.00D+00 IRadAn=         5 IDoV= 1 UseB2=F ITyADJ=14
 ICtDFT=  3500011 ScaDFX=  1.000000  1.000000  1.000000  1.000000
 FoFCou: FMM=F IPFlag=           0 FMFlag=      100000 FMFlg1=           0
         NFxFlg=           0 DoJE=T BraDBF=F KetDBF=T FulRan=T
         wScrn=  0.000000 ICntrl=       500 IOpCl=  0 I1Cent=   200000004 NGrid=           0
         NMat0=    1 NMatS0=      1 NMatT0=    0 NMatD0=    1 NMtDS0=    0 NMtDT0=    0
 Petite list used in FoFCou.
 Keep R1 ints in memory in symmetry-blocked form, NReq=21806039.
 Requested convergence on RMS density matrix=1.00D-08 within 128 cycles.
 Requested convergence on MAX density matrix=1.00D-06.
 Requested convergence on             energy=1.00D-06.
 No special actions if energy rises.
 Integral accuracy reduced to 1.0D-05 until final iterations.
 Initial convergence to 1.0D-05 achieved.  Increase integral accuracy.
 SCF Done:  E(RB3LYP) =  -315.635964304     A.U. after   10 cycles
            NFock= 10  Conv=0.94D-09     -V/T= 2.0062
 Calling FoFJK, ICntrl=      2127 FMM=F ISym2X=1 I1Cent= 0 IOpClX= 0 NMat=1 NMatS=1 NMatT=0.
 ***** Axes restored to original set *****
 -------------------------------------------------------------------
 Center     Atomic                   Forces (Hartrees/Bohr)
 Number     Number              X              Y              Z
 -------------------------------------------------------------------
      1        6           0.003870992    0.004481194    0.007760415
      2        1           0.000251735   -0.001969150   -0.001126211
      3        1           0.000255765    0.000004694   -0.002268003
      4        1          -0.000909366    0.000108069    0.000183611
      5        6           0.005503753   -0.004349689   -0.007499990
      6        1          -0.001991816    0.001766237    0.001957585
      7        1          -0.001993743    0.000822474    0.002503515
      8        6          -0.005080266    0.004487897    0.007740408
      9        1           0.002077938   -0.000866914   -0.002887547
     10        1           0.002075466   -0.002077237   -0.002187422
     11        6           0.006109063   -0.004172529   -0.007191593
     12        1          -0.002088535    0.000836315    0.002917071
     13        1          -0.002085918    0.002118119    0.002175597
     14        6          -0.006109063    0.004172529    0.007191593
     15        1           0.002088535   -0.000836315   -0.002917071
     16        1           0.002085918   -0.002118119   -0.002175597
     17        6           0.005080266   -0.004487897   -0.007740408
     18        1          -0.002077938    0.000866914    0.002887547
     19        1          -0.002075466    0.002077237    0.002187422
     20        6          -0.005503753    0.004349689    0.007499990
     21        1           0.001993743   -0.000822474   -0.002503515
     22        1           0.001991816   -0.001766237   -0.001957585
     23        6          -0.003870992   -0.004481194   -0.007760415
     24        1          -0.000255765   -0.000004694    0.002268003
     25        1           0.000909366   -0.000108069   -0.000183611
     26        1          -0.000251735    0.001969150    0.001126211
 -------------------------------------------------------------------
 Cartesian Forces:  Max     0.007760415 RMS     0.003581110

 GradGradGradGradGradGradGradGradGradGradGradGradGradGradGradGradGradGrad
 Berny optimization.
 Using GEDIIS/GDIIS optimizer.
 FormGI is forming the generalized inverse of G from B-inverse, IUseBI=4.
 Internal  Forces:  Max     0.006143173 RMS     0.001784762
 Search for a local minimum.
 Step number   2 out of a maximum of  146
 All quantities printed in internal units (Hartrees-Bohrs-Radians)
 Mixed Optimization -- RFO/linear search
 Update second derivatives using D2CorX and points    1    2
 DE= -1.40D-02 DEPred=-1.56D-02 R= 9.00D-01
 TightC=F SS=  1.41D+00  RLast= 3.39D-01 DXNew= 5.0454D-01 1.0164D+00
 Trust test= 9.00D-01 RLast= 3.39D-01 DXMaxT set to 5.05D-01
 ITU=  1  0
 Use linear search instead of GDIIS.
     Eigenvalues ---    0.00237   0.00237   0.00237   0.00237   0.00237
     Eigenvalues ---    0.00237   0.00237   0.03421   0.03421   0.03426
     Eigenvalues ---    0.03426   0.03473   0.03473   0.04758   0.04771
     Eigenvalues ---    0.04772   0.04772   0.04777   0.04780   0.05425
     Eigenvalues ---    0.05425   0.05554   0.05560   0.08242   0.08246
     Eigenvalues ---    0.08331   0.08331   0.08340   0.08340   0.12151
     Eigenvalues ---    0.12151   0.12216   0.12216   0.12223   0.12223
     Eigenvalues ---    0.15801   0.16000   0.16000   0.16000   0.16000
     Eigenvalues ---    0.16104   0.21970   0.21970   0.21987   0.21987
     Eigenvalues ---    0.21989   0.23692   0.28508   0.28519   0.28519
     Eigenvalues ---    0.28519   0.28519   0.28519   0.29190   0.36608
     Eigenvalues ---    0.37230   0.37230   0.37230   0.37230   0.37230
     Eigenvalues ---    0.37230   0.37230   0.37230   0.37230   0.37230
     Eigenvalues ---    0.37230   0.37230   0.37230   0.37230   0.37230
     Eigenvalues ---    0.37230   0.37991
 RFO step:  Lambda=-2.05224117D-03 EMin= 2.36824143D-03
 Quartic linear search produced a step of  0.03308.
 Iteration  1 RMS(Cart)=  0.01879471 RMS(Int)=  0.00006954
 Iteration  2 RMS(Cart)=  0.00006171 RMS(Int)=  0.00001715
 Iteration  3 RMS(Cart)=  0.00000001 RMS(Int)=  0.00001715
 ClnCor:  largest displacement from symmetrization is 3.63D-08 for atom    15.
 Variable       Old X    -DE/DX   Delta X   Delta X   Delta X     New X
                                 (Linear)    (Quad)   (Total)
    R1        2.06713   0.00197   0.00149   0.00656   0.00805   2.07518
    R2        2.06713   0.00197   0.00149   0.00656   0.00805   2.07518
    R3        2.06806   0.00091   0.00152   0.00365   0.00518   2.07324
    R4        2.93275  -0.00614   0.00075  -0.02150  -0.02075   2.91200
    R5        2.06985   0.00235   0.00158   0.00769   0.00927   2.07911
    R6        2.06985   0.00235   0.00158   0.00769   0.00927   2.07911
    R7        2.93229  -0.00504   0.00073  -0.01756  -0.01683   2.91546
    R8        2.07064   0.00268   0.00161   0.00859   0.01020   2.08083
    R9        2.07064   0.00268   0.00161   0.00859   0.01020   2.08083
   R10        2.93537  -0.00597   0.00083  -0.02082  -0.01998   2.91539
   R11        2.07036   0.00272   0.00160   0.00870   0.01030   2.08066
   R12        2.07036   0.00272   0.00160   0.00870   0.01030   2.08066
   R13        2.93577  -0.00608   0.00085  -0.02118  -0.02034   2.91543
   R14        2.07036   0.00272   0.00160   0.00870   0.01030   2.08066
   R15        2.07036   0.00272   0.00160   0.00870   0.01030   2.08066
   R16        2.93537  -0.00597   0.00083  -0.02082  -0.01998   2.91539
   R17        2.07064   0.00268   0.00161   0.00859   0.01020   2.08083
   R18        2.07064   0.00268   0.00161   0.00859   0.01020   2.08083
   R19        2.93229  -0.00504   0.00073  -0.01756  -0.01683   2.91546
   R20        2.06985   0.00235   0.00158   0.00769   0.00927   2.07911
   R21        2.06985   0.00235   0.00158   0.00769   0.00927   2.07911
   R22        2.93275  -0.00614   0.00075  -0.02150  -0.02075   2.91200
   R23        2.06713   0.00197   0.00149   0.00656   0.00805   2.07518
   R24        2.06806   0.00091   0.00152   0.00365   0.00518   2.07324
   R25        2.06713   0.00197   0.00149   0.00656   0.00805   2.07518
    A1        1.88979  -0.00132  -0.00069  -0.00742  -0.00818   1.88161
    A2        1.88779  -0.00039  -0.00076  -0.00379  -0.00454   1.88325
    A3        1.92545   0.00145   0.00049   0.00994   0.01039   1.93584
[...]
    21  H    3.117962   2.166290   3.072808   2.518937   1.100206
    22  H    2.573829   2.166290   2.518937   3.072808   1.100206
    23  C    4.234158   2.567987   2.791378   2.791378   1.537179
    24  H    4.456588   2.833506   2.609746   3.151086   2.185939
    25  H    4.915871   3.522249   3.798903   3.798903   2.190729
    26  H    4.793717   2.833506   3.151086   2.609746   2.185939
                   21         22         23         24         25
    21  H    0.000000
    22  H    1.759137   0.000000
    23  C    2.168502   2.168502   0.000000
    24  H    3.087220   2.532770   1.097545   0.000000
    25  H    2.512408   2.512408   1.096506   1.772428   0.000000
    26  H    2.532770   3.087220   1.097545   1.771326   1.772428
                   26
    26  H    0.000000
 Stoichiometry    C8H18
 Framework group  C2H[SGH(C8H2),X(H16)]
 Deg. of freedom    21
 Full point group                 C2H     NOp   4
 Largest Abelian subgroup         C2H     NOp   4
 Largest concise Abelian subgroup C2H     NOp   4
                         Standard orientation:                         
 ---------------------------------------------------------------------
 Center     Atomic      Atomic             Coordinates (Angstroms)
 Number     Number       Type             X           Y           Z
 ---------------------------------------------------------------------
      1          6           0        0.164932    4.516551    0.000000
      2          1           0       -0.470658    4.643952    0.885663
      3          1           0       -0.470658    4.643952   -0.885663
      4          1           0        0.904980    5.325658    0.000000
      5          6           0        0.840687    3.135872    0.000000
      6          1           0        1.495681    3.047582   -0.879569
      7          1           0        1.495681    3.047582    0.879569
      8          6           0       -0.164932    1.969838    0.000000
      9          1           0       -0.820640    2.057785   -0.880291
     10          1           0       -0.820640    2.057785    0.880291
     11          6           0        0.503001    0.582748    0.000000
     12          1           0        1.158718    0.495906    0.880286
     13          1           0        1.158718    0.495906   -0.880286
     14          6           0       -0.503001   -0.582748    0.000000
     15          1           0       -1.158718   -0.495906   -0.880286
     16          1           0       -1.158718   -0.495906    0.880286
     17          6           0        0.164932   -1.969838    0.000000
     18          1           0        0.820640   -2.057785    0.880291
     19          1           0        0.820640   -2.057785   -0.880291
     20          6           0       -0.840687   -3.135872    0.000000
     21          1           0       -1.495681   -3.047582   -0.879569
     22          1           0       -1.495681   -3.047582    0.879569
     23          6           0       -0.164932   -4.516551    0.000000
     24          1           0        0.470658   -4.643952    0.885663
     25          1           0       -0.904980   -5.325658    0.000000
     26          1           0        0.470658   -4.643952   -0.885663
 ---------------------------------------------------------------------
 Rotational constants (GHZ):          10.6567848           0.4821659           0.4720922

 **********************************************************************

            Population analysis using the SCF Density.

 **********************************************************************

 Orbital symmetries:
       Occupied  (BU) (AG) (AG) (BU) (AG) (BU) (BU) (AG) (AG) (BU)
                 (AG) (BU) (AG) (BU) (BU) (AG) (AU) (BG) (BU) (AU)
                 (AG) (AG) (BG) (BU) (AU) (BU) (AG) (BG) (BU) (AG)
                 (AU) (BG) (AG)
       Virtual   (AG) (BU) (AG) (AU) (BU) (BG) (BU) (AG) (BU) (AU)
                 (AG) (BG) (AG) (AU) (BU) (BG) (AU) (BG) (BU) (AG)
                 (BU) (AG) (BU) (BU) (AG) (AG) (AG) (BU) (BU) (AU)
                 (BG) (AU) (BU) (AG) (BG) (AG) (AG) (AU) (BU) (BU)
                 (BU) (AG) (BG) (AG) (AU) (BG) (BU) (AU) (AG) (BG)
                 (BU) (BU) (AU) (AG) (AG) (BU) (BG) (BU) (AG) (BU)
                 (AU) (BU) (AG) (AG) (BG) (AG) (AU) (BU) (AG) (BU)
                 (BG) (AG) (BU) (AG) (BU)
 The electronic state is 1-AG.
 Alpha  occ. eigenvalues --  -10.17195 -10.17195 -10.16974 -10.16964 -10.16948
 Alpha  occ. eigenvalues --  -10.16947 -10.16461 -10.16461  -0.80564  -0.78244
 Alpha  occ. eigenvalues --   -0.74517  -0.69634  -0.64103  -0.59129  -0.57381
 Alpha  occ. eigenvalues --   -0.57014  -0.47912  -0.45820  -0.43222  -0.42659
 Alpha  occ. eigenvalues --   -0.41416  -0.40805  -0.38945  -0.38094  -0.35445
 Alpha  occ. eigenvalues --   -0.35011  -0.34854  -0.32931  -0.32668  -0.31791
 Alpha  occ. eigenvalues --   -0.31749  -0.31552  -0.29664
 Alpha virt. eigenvalues --    0.09027   0.09818   0.11378   0.11629   0.12615
 Alpha virt. eigenvalues --    0.14390   0.14489   0.15230   0.17003   0.17879
 Alpha virt. eigenvalues --    0.18022   0.19495   0.19497   0.19684   0.19897
 Alpha virt. eigenvalues --    0.20202   0.21336   0.21346   0.21367   0.23607
 Alpha virt. eigenvalues --    0.24966   0.25116   0.27558   0.30572   0.31065
 Alpha virt. eigenvalues --    0.51042   0.52668   0.53419   0.57047   0.57514
 Alpha virt. eigenvalues --    0.57629   0.59416   0.60767   0.61074   0.61075
 Alpha virt. eigenvalues --    0.63811   0.67251   0.67254   0.68749   0.70365
 Alpha virt. eigenvalues --    0.73585   0.75240   0.75518   0.80657   0.81579
 Alpha virt. eigenvalues --    0.82693   0.83256   0.87723   0.89517   0.90676
 Alpha virt. eigenvalues --    0.91953   0.93430   0.94773   0.94962   0.96632
 Alpha virt. eigenvalues --    0.98432   0.98448   0.98833   0.99892   1.00615
 Alpha virt. eigenvalues --    1.01389   1.01464   1.01662   1.03332   1.04905
 Alpha virt. eigenvalues --    1.13894   1.17495   1.25528   1.36230   1.43091
 Alpha virt. eigenvalues --    1.43450   1.47210   1.51513   1.67619   1.92802
          Condensed to atoms (all electrons):
               1          2          3          4          5          6
     1  C    5.086891   0.376318   0.376318   0.368106   0.325821  -0.041285
     2  H    0.376318   0.597881  -0.034440  -0.033067  -0.037880   0.005243
     3  H    0.376318  -0.034440   0.597881  -0.033067  -0.037880  -0.004743
     4  H    0.368106  -0.033067  -0.033067   0.599403  -0.029375  -0.002672
     5  C    0.325821  -0.037880  -0.037880  -0.029375   5.054569   0.378642
     6  H   -0.041285   0.005243  -0.004743  -0.002672   0.378642   0.626241
     7  H   -0.041285  -0.004743   0.005243  -0.002672   0.378642  -0.041729
     8  C   -0.044776  -0.004407  -0.004407   0.004316   0.330858  -0.043791
     9  H   -0.002493  -0.000498   0.004954  -0.000016  -0.044277  -0.005815
    10  H   -0.002493   0.004954  -0.000498  -0.000016  -0.044277   0.005934
    11  C    0.004128   0.000048   0.000048  -0.000159  -0.036004  -0.003076
    12  H    0.000042   0.000001   0.000006   0.000002  -0.003035  -0.000565
    13  H    0.000042   0.000006   0.000001   0.000002  -0.003035   0.005197
    14  C   -0.000152   0.000001   0.000001   0.000001   0.003894   0.000038
    15  H    0.000002   0.000000  -0.000001   0.000000   0.000037   0.000003
    16  H    0.000002  -0.000001   0.000000   0.000000   0.000037   0.000005
    17  C    0.000001   0.000000   0.000000   0.000000  -0.000142   0.000002
    18  H    0.000000   0.000000   0.000000   0.000000   0.000001   0.000001
    19  H    0.000000   0.000000   0.000000   0.000000   0.000001  -0.000002
    20  C    0.000000   0.000000   0.000000   0.000000   0.000001   0.000000
    21  H    0.000000   0.000000   0.000000   0.000000   0.000000   0.000000
    22  H    0.000000   0.000000   0.000000   0.000000   0.000000   0.000000
    23  C    0.000000   0.000000   0.000000   0.000000   0.000000   0.000000
    24  H    0.000000   0.000000   0.000000   0.000000   0.000000   0.000000
    25  H    0.000000   0.000000   0.000000   0.000000   0.000000   0.000000
    26  H    0.000000   0.000000   0.000000   0.000000   0.000000   0.000000
               7          8          9         10         11         12
     1  C   -0.041285  -0.044776  -0.002493  -0.002493   0.004128   0.000042
     2  H   -0.004743  -0.004407  -0.000498   0.004954   0.000048   0.000001
     3  H    0.005243  -0.004407   0.004954  -0.000498   0.000048   0.000006
     4  H   -0.002672   0.004316  -0.000016  -0.000016  -0.000159   0.000002
     5  C    0.378642   0.330858  -0.044277  -0.044277  -0.036004  -0.003035
     6  H   -0.041729  -0.043791  -0.005815   0.005934  -0.003076  -0.000565
     7  H    0.626241  -0.043791   0.005934  -0.005815  -0.003076   0.005197
     8  C   -0.043791   5.091640   0.375736   0.375736   0.318229  -0.043546
     9  H    0.005934   0.375736   0.631858  -0.042500  -0.043316   0.005886
    10  H   -0.005815   0.375736  -0.042500   0.631858  -0.043316  -0.005729
    11  C   -0.003076   0.318229  -0.043316  -0.043316   5.102873   0.375561
    12  H    0.005197  -0.043546   0.005886  -0.005729   0.375561   0.631139
    13  H   -0.000565  -0.043546  -0.005729   0.005886   0.375561  -0.042325
    14  C    0.000038  -0.035527  -0.002977  -0.002977   0.315555  -0.043550
    15  H    0.000005  -0.002959   0.005083  -0.000547  -0.043550   0.005882
    16  H    0.000003  -0.002959  -0.000547   0.005083  -0.043550  -0.005731
    17  C    0.000002   0.003878   0.000045   0.000045  -0.035527  -0.002959
    18  H   -0.000002   0.000045   0.000005   0.000004  -0.002977   0.005083
    19  H    0.000001   0.000045   0.000004   0.000005  -0.002977  -0.000547
    20  C    0.000000  -0.000142   0.000001   0.000001   0.003894   0.000037
    21  H    0.000000   0.000002  -0.000002   0.000001   0.000038   0.000005
    22  H    0.000000   0.000002   0.000001  -0.000002   0.000038   0.000003
    23  C    0.000000   0.000001   0.000000   0.000000  -0.000152   0.000002
    24  H    0.000000   0.000000   0.000000   0.000000   0.000001  -0.000001
    25  H    0.000000   0.000000   0.000000   0.000000   0.000001   0.000000
    26  H    0.000000   0.000000   0.000000   0.000000   0.000001   0.000000
              13         14         15         16         17         18
     1  C    0.000042  -0.000152   0.000002   0.000002   0.000001   0.000000
     2  H    0.000006   0.000001   0.000000  -0.000001   0.000000   0.000000
     3  H    0.000001   0.000001  -0.000001   0.000000   0.000000   0.000000
     4  H    0.000002   0.000001   0.000000   0.000000   0.000000   0.000000
     5  C   -0.003035   0.003894   0.000037   0.000037  -0.000142   0.000001
     6  H    0.005197   0.000038   0.000003   0.000005   0.000002   0.000001
     7  H   -0.000565   0.000038   0.000005   0.000003   0.000002  -0.000002
     8  C   -0.043546  -0.035527  -0.002959  -0.002959   0.003878   0.000045
     9  H   -0.005729  -0.002977   0.005083  -0.000547   0.000045   0.000005
    10  H    0.005886  -0.002977  -0.000547   0.005083   0.000045   0.000004
    11  C    0.375561   0.315555  -0.043550  -0.043550  -0.035527  -0.002977
    12  H   -0.042325  -0.043550   0.005882  -0.005731  -0.002959   0.005083
    13  H    0.631139  -0.043550  -0.005731   0.005882  -0.002959  -0.000547
    14  C   -0.043550   5.102873   0.375561   0.375561   0.318229  -0.043316
    15  H   -0.005731   0.375561   0.631139  -0.042325  -0.043546   0.005886
    16  H    0.005882   0.375561  -0.042325   0.631139  -0.043546  -0.005729
    17  C   -0.002959   0.318229  -0.043546  -0.043546   5.091640   0.375736
    18  H   -0.000547  -0.043316   0.005886  -0.005729   0.375736   0.631858
    19  H    0.005083  -0.043316  -0.005729   0.005886   0.375736  -0.042500
    20  C    0.000037  -0.036004  -0.003035  -0.003035   0.330858  -0.044277
    21  H    0.000003  -0.003076   0.005197  -0.000565  -0.043791   0.005934
    22  H    0.000005  -0.003076  -0.000565   0.005197  -0.043791  -0.005815
    23  C    0.000002   0.004128   0.000042   0.000042  -0.044776  -0.002493
    24  H    0.000000   0.000048   0.000006   0.000001  -0.004407   0.004954
    25  H    0.000000  -0.000159   0.000002   0.000002   0.004316  -0.000016
    26  H   -0.000001   0.000048   0.000001   0.000006  -0.004407  -0.000498
              19         20         21         22         23         24
     1  C    0.000000   0.000000   0.000000   0.000000   0.000000   0.000000
     2  H    0.000000   0.000000   0.000000   0.000000   0.000000   0.000000
     3  H    0.000000   0.000000   0.000000   0.000000   0.000000   0.000000
     4  H    0.000000   0.000000   0.000000   0.000000   0.000000   0.000000
     5  C    0.000001   0.000001   0.000000   0.000000   0.000000   0.000000
     6  H   -0.000002   0.000000   0.000000   0.000000   0.000000   0.000000
     7  H    0.000001   0.000000   0.000000   0.000000   0.000000   0.000000
     8  C    0.000045  -0.000142   0.000002   0.000002   0.000001   0.000000
     9  H    0.000004   0.000001  -0.000002   0.000001   0.000000   0.000000
    10  H    0.000005   0.000001   0.000001  -0.000002   0.000000   0.000000
    11  C   -0.002977   0.003894   0.000038   0.000038  -0.000152   0.000001
    12  H   -0.000547   0.000037   0.000005   0.000003   0.000002  -0.000001
    13  H    0.005083   0.000037   0.000003   0.000005   0.000002   0.000000
    14  C   -0.043316  -0.036004  -0.003076  -0.003076   0.004128   0.000048
    15  H   -0.005729  -0.003035   0.005197  -0.000565   0.000042   0.000006
    16  H    0.005886  -0.003035  -0.000565   0.005197   0.000042   0.000001
    17  C    0.375736   0.330858  -0.043791  -0.043791  -0.044776  -0.004407
    18  H   -0.042500  -0.044277   0.005934  -0.005815  -0.002493   0.004954
    19  H    0.631858  -0.044277  -0.005815   0.005934  -0.002493  -0.000498
    20  C   -0.044277   5.054569   0.378642   0.378642   0.325821  -0.037880
    21  H   -0.005815   0.378642   0.626241  -0.041729  -0.041285   0.005243
    22  H    0.005934   0.378642  -0.041729   0.626241  -0.041285  -0.004743
    23  C   -0.002493   0.325821  -0.041285  -0.041285   5.086891   0.376318
    24  H   -0.000498  -0.037880   0.005243  -0.004743   0.376318   0.597881
    25  H   -0.000016  -0.029375  -0.002672  -0.002672   0.368106  -0.033067
    26  H    0.004954  -0.037880  -0.004743   0.005243   0.376318  -0.034440
              25         26
     1  C    0.000000   0.000000
     2  H    0.000000   0.000000
     3  H    0.000000   0.000000
     4  H    0.000000   0.000000
     5  C    0.000000   0.000000
     6  H    0.000000   0.000000
     7  H    0.000000   0.000000
     8  C    0.000000   0.000000
     9  H    0.000000   0.000000
    10  H    0.000000   0.000000
    11  C    0.000001   0.000001
    12  H    0.000000   0.000000
    13  H    0.000000  -0.000001
    14  C   -0.000159   0.000048
    15  H    0.000002   0.000001
    16  H    0.000002   0.000006
    17  C    0.004316  -0.004407
    18  H   -0.000016  -0.000498
    19  H   -0.000016   0.004954
    20  C   -0.029375  -0.037880
    21  H   -0.002672  -0.004743
    22  H   -0.002672   0.005243
    23  C    0.368106   0.376318
    24  H   -0.033067  -0.034440
    25  H    0.599403  -0.033067
    26  H   -0.033067   0.597881
 Mulliken charges:
               1
     1  C   -0.405188
     2  H    0.130581
     3  H    0.130581
     4  H    0.129211
     5  C   -0.236599
     6  H    0.122371
     7  H    0.122371
     8  C   -0.230639
     9  H    0.118663
    10  H    0.118663
    11  C   -0.238296
    12  H    0.119139
    13  H    0.119139
    14  C   -0.238296
    15  H    0.119139
    16  H    0.119139
    17  C   -0.230639
    18  H    0.118663
    19  H    0.118663
    20  C   -0.236599
    21  H    0.122371
    22  H    0.122371
    23  C   -0.405188
    24  H    0.130581
    25  H    0.129211
    26  H    0.130581
 Sum of Mulliken charges =   0.00000
 Mulliken charges with hydrogens summed into heavy atoms:
               1
     1  C   -0.014814
     5  C    0.008143
     8  C    0.006688
    11  C   -0.000017
    14  C   -0.000017
    17  C    0.006688
    20  C    0.008143
    23  C   -0.014814
 Electronic spatial extent (au):  <R**2>=           2464.3166
 Charge=              0.0000 electrons
 Dipole moment (field-independent basis, Debye):
    X=              0.0000    Y=              0.0000    Z=              0.0000  Tot=              0.0000
 Quadrupole moment (field-independent basis, Debye-Ang):
   XX=            -55.3174   YY=            -55.8889   ZZ=            -54.2375
   XY=              0.2926   XZ=              0.0000   YZ=              0.0000
 Traceless Quadrupole moment (field-independent basis, Debye-Ang):
   XX=             -0.1695   YY=             -0.7410   ZZ=              0.9105
   XY=              0.2926   XZ=              0.0000   YZ=              0.0000
 Octapole moment (field-independent basis, Debye-Ang**2):
  XXX=              0.0000  YYY=              0.0000  ZZZ=              0.0000  XYY=              0.0000
  XXY=              0.0000  XXZ=              0.0000  XZZ=              0.0000  YZZ=              0.0000
  YYZ=              0.0000  XYZ=              0.0000
 Hexadecapole moment (field-independent basis, Debye-Ang**3):
 XXXX=           -215.8144 YYYY=          -3153.7811 ZZZZ=           -112.4929 XXXY=           -135.6891
 XXXZ=              0.0000 YYYX=           -119.4797 YYYZ=              0.0000 ZZZX=              0.0000
 ZZZY=              0.0000 XXYY=           -551.0967 XXZZ=            -51.1991 YYZZ=           -533.3472
 XXYZ=              0.0000 YYXZ=              0.0000 ZZXY=            -48.1909
 N-N= 3.721616930822D+02 E-N=-1.473911170533D+03  KE= 3.137163957374D+02
 Symmetry AG   KE= 1.505178307232D+02
 Symmetry BG   KE= 7.937219987300D+00
 Symmetry AU   KE= 7.756764651570D+00
 Symmetry BU   KE= 1.475045803753D+02
 1|1|UNPC-6424705A076343F|FOpt|RB3LYP|6-31G|C8H18|TKMELDRUM|14-Mar-2023
 |0||# opt b3lyp/6-31g geom=connectivity||Title Card Required||0,1|C,-7
 .1577746428,-0.6236063993,-0.044967189|H,-6.819661868,-1.6672150918,-0
 .0791081163|H,-6.8165313202,-0.133942465,-0.9660465453|H,-8.2542388874
 ,-0.6266087693,-0.0540275535|C,-6.6072682416,0.0941966566,1.1978599653
 |H,-6.9872438377,1.126367217,1.2242506414|H,-6.9903528443,-0.396355020
 6,2.1050860816|C,-5.0685909032,0.1209090947,1.2494693572|H,-4.68476875
 09,0.6119403262,0.3416320729|H,-4.6878803111,-0.9120325987,1.223190987
 |C,-4.5080628466,0.8380163013,2.4911289518|H,-4.8927008413,0.346616568
 3,3.3983165955|H,-4.8895892983,1.8705810646,2.5167625571|C,-2.96951912
 52,0.8644046187,2.5421775567|H,-2.5848811306,1.3558043517,1.6349899129
 |H,-2.5879926735,-0.1681601446,2.5165439514|C,-2.4089910686,1.58151182
 53,3.7838371512|H,-2.7928132209,1.0904805938,4.6916744355|H,-2.7897016
 607,2.6144535187,3.8101155215|C,-0.8703137303,1.6082242634,3.835446543
 2|H,-0.4872291276,2.0987759406,2.9282204269|H,-0.4903381342,0.57605370
 3,3.8090558671|C,-0.319807329,2.3260273193,5.0782736975|H,-0.661050651
 6,1.836363385,5.9993530538|H,0.7766569156,2.3290296893,5.087334062|H,-
 0.6579201039,3.3696360118,5.1124146248||Version=EM64W-G16RevB.01|State
 =1-AG|HF=-315.6372219|RMSD=3.061e-009|RMSF=5.584e-005|Dipole=0.,0.,0.|
 Quadrupole=-0.1367265,0.372101,-0.2353745,-0.1126897,-0.1976812,-0.527
 3117|PG=C02H [SGH(C8H2),X(H16)]||@


 IT WAS AN ACT OF DESPARATION. FOR SIX YEARS I HAD STRUGGLED WITH THE
 BLACKBODY THEORY. I KNEW THE PROBLEM WAS FUNDAMENTAL, AND I KNEW
 THE ANSWER. I HAD TO FIND A THEORETICAL EXPLANATION AT ANY COST,
 EXCEPT FOR THE INVIOLABLITY OF THE TWO LAWS OF THERMODYNAMICS.
   -- MAX PLANCK, 1931
 Job cpu time:       0 days  0 hours  2 minutes 30.0 seconds.
 Elapsed time:       0 days  0 hours  2 minutes 25.1 seconds.
 File lengths (MBytes):  RWF=     10 Int=      0 D2E=      0 Chk=      3 Scr=      1
 Normal termination of Gaussian 16 at Tue Mar 14 10:02:00 2023.
