 Entering Link 1 = C:\Gaussian\l1.exe PID=      8240.
  
 Copyright (c) 1988-2017, Gaussian, Inc.  All Rights Reserved.
  
 This is part of the Gaussian(R) 16 program.  It is based on
 the Gaussian(R) 09 system (copyright 2009, Gaussian, Inc.),
 the Gaussian(R) 03 system (copyright 2003, Gaussian, Inc.),
 the Gaussian(R) 98 system (copyright 1998, Gaussian, Inc.),
 the Gaussian(R) 94 system (copyright 1995, Gaussian, Inc.),
 the Gaussian 92(TM) system (copyright 1992, Gaussian, Inc.),
 the Gaussian 90(TM) system (copyright 1990, Gaussian, Inc.),
 the Gaussian 88(TM) system (copyright 1988, Gaussian, Inc.),
 the Gaussian 86(TM) system (copyright 1986, Carnegie Mellon
 University), and the Gaussian 82(TM) system (copyright 1983,
 Carnegie Mellon University). Gaussian is a federally registered
 trademark of Gaussian, Inc.
  
 This software contains proprietary and confidential information,
 including trade secrets, belonging to Gaussian, Inc.
  
 This software is provided under written license and may be
 used, copied, transmitted, or stored only in accord with that
 written license.
  
 The following legend is applicable only to US Government
 contracts under FAR:
  
                    RESTRICTED RIGHTS LEGEND
  
 Use, reproduction and disclosure by the US Government is
 subject to restrictions as set forth in subparagraphs (a)
 and (c) of the Commercial Computer Software - Restricted
 Rights clause in FAR 52.227-19.
  
 Gaussian, Inc.
 340 Quinnipiac St., Bldg. 40, Wallingford CT 06492
  
  
 ---------------------------------------------------------------
 Warning -- This program may not be used in any manner that
 competes with the business of Gaussian, Inc. or will provide
 assistance to any competitor of Gaussian, Inc.  The licensee
 of this program is prohibited from giving any competitor of
 Gaussian, Inc. access to this program.  By using this program,
 the user acknowledges that Gaussian, Inc. is engaged in the
 business of creating and licensing software in the field of
 computational chemistry and represents and warrants to the
 licensee that it is not a competitor of Gaussian, Inc. and that
 it will not use this program in any manner prohibited above.
 ---------------------------------------------------------------
  

 Cite this work as:
 Gaussian 16, Revision B.01,
 M. J. Frisch, G. W. Trucks, H. B. Schlegel, G. E. Scuseria, 
 M. A. Robb, J. R. Cheeseman, G. Scalmani, V. Barone, 
 G. A. Petersson, H. Nakatsuji, X. Li, M. Caricato, A. V. Marenich, 
 J. Bloino, B. G. Janesko, R. Gomperts, B. Mennucci, H. P. Hratchian, 
 J. V. Ortiz, A. F. Izmaylov, J. L. Sonnenberg, D. Williams-Young, 
 F. Ding, F. Lipparini, F. Egidi, J. Goings, B. Peng, A. Petrone, 
 T. Henderson, D. Ranasinghe, V. G. Zakrzewski, J. Gao, N. Rega, 
 G. Zheng, W. Liang, M. Hada, M. Ehara, K. Toyota, R. Fukuda, 
 J. Hasegawa, M. Ishida, T. Nakajima, Y. Honda, O. Kitao, H. Nakai, 
 T. Vreven, K. Throssell, J. A. Montgomery, Jr., J. E. Peralta, 
 F. Ogliaro, M. J. Bearpark, J. J. Heyd, E. N. Brothers, K. N. Kudin, 
 V. N. Staroverov, T. A. Keith, R. Kobayashi, J. Normand, 
 K. Raghavachari, A. P. Rendell, J. C. Burant, S. S. Iyengar, 
 J. Tomasi, M. Cossi, J. M. Millam, M. Klene, C. Adamo, R. Cammi, 
 J. W. Ochterski, R. L. Martin, K. Morokuma, O. Farkas, 
 J. B. Foresman, and D. J. Fox, Gaussian, Inc., Wallingford CT, 2016.
 
 ******************************************
 Gaussian 16:  EM64W-G16RevB.01 16-Dec-2017
                14-Mar-2023 
 ******************************************
 %chk=C:\Users\tkmeldrum\Documents\MDworking\C20H42.chk
 -----------------------------------
 # opt b3lyp/6-31g geom=connectivity
 -----------------------------------
 1/18=20,19=15,26=3,38=1,57=2/1,3;
 2/9=110,12=2,17=6,18=5,40=1/2;
 3/5=1,6=6,11=2,25=1,30=1,71=1,74=-5/1,2,3;
 4//1;
 5/5=2,38=5/2;
 6/7=2,8=2,9=2,10=2,28=1/1;
 7//1,2,3,16;
 1/18=20,19=15,26=3/3(2);
 2/9=110/2;
 99//99;
 2/9=110/2;
 3/5=1,6=6,11=2,25=1,30=1,71=1,74=-5/1,2,3;
 4/5=5,16=3,69=1/1;
 5/5=2,38=5/2;
 7//1,2,3,16;
 1/18=20,19=15,26=3/3(-5);
 2/9=110/2;
 6/7=2,8=2,9=2,10=2,19=2,28=1/1;
 99/9=1/99;
 -------------------
 Title Card Required
 -------------------
 Symbolic Z-matrix:
 Charge =  0 Multiplicity = 1
 C                    -9.55975  -4.15096   0.00001 
 H                    -9.20325  -5.15983   0.00013 
 H                    -9.20292  -3.64669  -0.87365 
 H                    -10.62975  -4.15079  -0.00008 
 C                    -9.04641  -3.42498   1.2574 
 H                    -9.40291  -2.41612   1.25728 
 H                    -9.40323  -3.92925   2.13106 
 C                    -7.50641  -3.42524   1.25754 
 H                    -7.14958  -2.92097   0.38387 
 H                    -7.14991  -4.4341    1.25765 
 C                    -6.99306  -2.69925   2.51493 
 H                    -7.34989  -3.20352   3.38859 
 H                    -7.34956  -1.69039   2.51481 
 C                    -5.45306  -2.69951   2.51506 
 H                    -5.09624  -2.19524   1.6414 
 H                    -5.09656  -3.70837   2.51518 
 C                    -4.93972  -1.97352   3.77245 
 H                    -5.29655  -2.47779   4.64611 
 H                    -5.29622  -0.96466   3.77233 
 C                    -3.39972  -1.97378   3.77259 
 H                    -3.04289  -1.46951   2.89892 
 H                    -3.04322  -2.98264   3.7727 
 C                    -2.88638  -1.24779   5.02997 
 H                    -3.24321  -1.75206   5.90364 
 H                    -3.24288  -0.23892   5.02985 
 C                    -1.34638  -1.24804   5.03011 
 H                    -0.98955  -0.74378   4.15644 
 H                    -0.98988  -2.25691   5.03023 
 C                    -0.83304  -0.52205   6.28749 
 H                    -1.18987  -1.02632   7.16116 
 H                    -1.18954   0.48681   6.28737 
 C                     0.70696  -0.52231   6.28763 
 H                     1.06379  -0.01805   5.41397 
 H                     1.06346  -1.53118   6.28775 
 C                     1.22031   0.20368   7.54502 
 H                     0.86348  -0.30059   8.41868 
 H                     0.86381   1.21254   7.54489 
 C                     2.76031   0.20342   7.54515 
 H                     3.11713   0.70768   6.67149 
 H                     3.1168   -0.80545   7.54528 
 C                     3.27365   0.92941   8.80254 
 H                     2.91682   0.42515   9.6762 
 H                     2.91715   1.93828   8.80242 
 C                     4.81365   0.92915   8.80268 
 H                     5.17048   1.43341   7.92901 
 H                     5.17014  -0.07972   8.8028 
 C                     5.32699   1.65514   10.06006 
 H                     4.97016   1.15088   10.93373 
 H                     4.9705    2.66401   10.05994 
 C                     6.86699   1.65488   10.0602 
 H                     7.22382   2.15914   9.18654 
 H                     7.22348   0.64601   10.06033 
 C                     7.38033   2.38087   11.31759 
 H                     7.0235    1.87661   12.19125 
 H                     7.02384   3.38974   11.31746 
 C                     8.92033   2.38061   11.31773 
 H                     9.27716   2.88487   10.44406 
 H                     9.27683   1.37174   11.31785 
 C                     9.43367   3.1066    12.57511 
 H                     9.07684   2.60234   13.44878 
 H                     10.50367   3.10642   12.57521 
 H                     9.07718   4.11547   12.57499 
 

 GradGradGradGradGradGradGradGradGradGradGradGradGradGradGradGradGradGrad
 Berny optimization.
 Initialization pass.
                           ----------------------------
                           !    Initial Parameters    !
                           ! (Angstroms and Degrees)  !
 --------------------------                            --------------------------
 ! Name  Definition              Value          Derivative Info.                !
 --------------------------------------------------------------------------------
 ! R1    R(1,2)                  1.07           estimate D2E/DX2                !
 ! R2    R(1,3)                  1.07           estimate D2E/DX2                !
 ! R3    R(1,4)                  1.07           estimate D2E/DX2                !
 ! R4    R(1,5)                  1.54           estimate D2E/DX2                !
 ! R5    R(5,6)                  1.07           estimate D2E/DX2                !
 ! R6    R(5,7)                  1.07           estimate D2E/DX2                !
 ! R7    R(5,8)                  1.54           estimate D2E/DX2                !
 ! R8    R(8,9)                  1.07           estimate D2E/DX2                !
 ! R9    R(8,10)                 1.07           estimate D2E/DX2                !
 ! R10   R(8,11)                 1.54           estimate D2E/DX2                !
 ! R11   R(11,12)                1.07           estimate D2E/DX2                !
 ! R12   R(11,13)                1.07           estimate D2E/DX2                !
 ! R13   R(11,14)                1.54           estimate D2E/DX2                !
 ! R14   R(14,15)                1.07           estimate D2E/DX2                !
 ! R15   R(14,16)                1.07           estimate D2E/DX2                !
 ! R16   R(14,17)                1.54           estimate D2E/DX2                !
 ! R17   R(17,18)                1.07           estimate D2E/DX2                !
 ! R18   R(17,19)                1.07           estimate D2E/DX2                !
 ! R19   R(17,20)                1.54           estimate D2E/DX2                !
 ! R20   R(20,21)                1.07           estimate D2E/DX2                !
 ! R21   R(20,22)                1.07           estimate D2E/DX2                !
 ! R22   R(20,23)                1.54           estimate D2E/DX2                !
 ! R23   R(23,24)                1.07           estimate D2E/DX2                !
 ! R24   R(23,25)                1.07           estimate D2E/DX2                !
 ! R25   R(23,26)                1.54           estimate D2E/DX2                !
 ! R26   R(26,27)                1.07           estimate D2E/DX2                !
 ! R27   R(26,28)                1.07           estimate D2E/DX2                !
 ! R28   R(26,29)                1.54           estimate D2E/DX2                !
 ! R29   R(29,30)                1.07           estimate D2E/DX2                !
 ! R30   R(29,31)                1.07           estimate D2E/DX2                !
 ! R31   R(29,32)                1.54           estimate D2E/DX2                !
 ! R32   R(32,33)                1.07           estimate D2E/DX2                !
 ! R33   R(32,34)                1.07           estimate D2E/DX2                !
 ! R34   R(32,35)                1.54           estimate D2E/DX2                !
 ! R35   R(35,36)                1.07           estimate D2E/DX2                !
 ! R36   R(35,37)                1.07           estimate D2E/DX2                !
 ! R37   R(35,38)                1.54           estimate D2E/DX2                !
 ! R38   R(38,39)                1.07           estimate D2E/DX2                !
 ! R39   R(38,40)                1.07           estimate D2E/DX2                !
 ! R40   R(38,41)                1.54           estimate D2E/DX2                !
 ! R41   R(41,42)                1.07           estimate D2E/DX2                !
 ! R42   R(41,43)                1.07           estimate D2E/DX2                !
 ! R43   R(41,44)                1.54           estimate D2E/DX2                !
 ! R44   R(44,45)                1.07           estimate D2E/DX2                !
 ! R45   R(44,46)                1.07           estimate D2E/DX2                !
 ! R46   R(44,47)                1.54           estimate D2E/DX2                !
 ! R47   R(47,48)                1.07           estimate D2E/DX2                !
 ! R48   R(47,49)                1.07           estimate D2E/DX2                !
 ! R49   R(47,50)                1.54           estimate D2E/DX2                !
 ! R50   R(50,51)                1.07           estimate D2E/DX2                !
 ! R51   R(50,52)                1.07           estimate D2E/DX2                !
 ! R52   R(50,53)                1.54           estimate D2E/DX2                !
 ! R53   R(53,54)                1.07           estimate D2E/DX2                !
 ! R54   R(53,55)                1.07           estimate D2E/DX2                !
 ! R55   R(53,56)                1.54           estimate D2E/DX2                !
 ! R56   R(56,57)                1.07           estimate D2E/DX2                !
 ! R57   R(56,58)                1.07           estimate D2E/DX2                !
 ! R58   R(56,59)                1.54           estimate D2E/DX2                !
 ! R59   R(59,60)                1.07           estimate D2E/DX2                !
 ! R60   R(59,61)                1.07           estimate D2E/DX2                !
 ! R61   R(59,62)                1.07           estimate D2E/DX2                !
 ! A1    A(2,1,3)              109.4712         estimate D2E/DX2                !
 ! A2    A(2,1,4)              109.4712         estimate D2E/DX2                !
 ! A3    A(2,1,5)              109.4712         estimate D2E/DX2                !
 ! A4    A(3,1,4)              109.4712         estimate D2E/DX2                !
 ! A5    A(3,1,5)              109.4712         estimate D2E/DX2                !
 ! A6    A(4,1,5)              109.4712         estimate D2E/DX2                !
 ! A7    A(1,5,6)              109.4712         estimate D2E/DX2                !
 ! A8    A(1,5,7)              109.4712         estimate D2E/DX2                !
 ! A9    A(1,5,8)              109.4712         estimate D2E/DX2                !
 ! A10   A(6,5,7)              109.4712         estimate D2E/DX2                !
 ! A11   A(6,5,8)              109.4712         estimate D2E/DX2                !
 ! A12   A(7,5,8)              109.4712         estimate D2E/DX2                !
 ! A13   A(5,8,9)              109.4712         estimate D2E/DX2                !
 ! A14   A(5,8,10)             109.4712         estimate D2E/DX2                !
 ! A15   A(5,8,11)             109.4712         estimate D2E/DX2                !
 ! A16   A(9,8,10)             109.4712         estimate D2E/DX2                !
 ! A17   A(9,8,11)             109.4712         estimate D2E/DX2                !
 ! A18   A(10,8,11)            109.4712         estimate D2E/DX2                !
 ! A19   A(8,11,12)            109.4712         estimate D2E/DX2                !
 ! A20   A(8,11,13)            109.4712         estimate D2E/DX2                !
 ! A21   A(8,11,14)            109.4712         estimate D2E/DX2                !
 ! A22   A(12,11,13)           109.4712         estimate D2E/DX2                !
 ! A23   A(12,11,14)           109.4712         estimate D2E/DX2                !
 ! A24   A(13,11,14)           109.4712         estimate D2E/DX2                !
 ! A25   A(11,14,15)           109.4712         estimate D2E/DX2                !
 ! A26   A(11,14,16)           109.4712         estimate D2E/DX2                !
 ! A27   A(11,14,17)           109.4712         estimate D2E/DX2                !
 ! A28   A(15,14,16)           109.4712         estimate D2E/DX2                !
 ! A29   A(15,14,17)           109.4712         estimate D2E/DX2                !
 ! A30   A(16,14,17)           109.4712         estimate D2E/DX2                !
 ! A31   A(14,17,18)           109.4712         estimate D2E/DX2                !
 ! A32   A(14,17,19)           109.4712         estimate D2E/DX2                !
 ! A33   A(14,17,20)           109.4712         estimate D2E/DX2                !
 ! A34   A(18,17,19)           109.4712         estimate D2E/DX2                !
 ! A35   A(18,17,20)           109.4712         estimate D2E/DX2                !
 ! A36   A(19,17,20)           109.4712         estimate D2E/DX2                !
 ! A37   A(17,20,21)           109.4712         estimate D2E/DX2                !
 ! A38   A(17,20,22)           109.4712         estimate D2E/DX2                !
 ! A39   A(17,20,23)           109.4712         estimate D2E/DX2                !
 ! A40   A(21,20,22)           109.4712         estimate D2E/DX2                !
 ! A41   A(21,20,23)           109.4712         estimate D2E/DX2                !
 ! A42   A(22,20,23)           109.4712         estimate D2E/DX2                !
 ! A43   A(20,23,24)           109.4712         estimate D2E/DX2                !
 ! A44   A(20,23,25)           109.4712         estimate D2E/DX2                !
 ! A45   A(20,23,26)           109.4712         estimate D2E/DX2                !
 ! A46   A(24,23,25)           109.4712         estimate D2E/DX2                !
 ! A47   A(24,23,26)           109.4712         estimate D2E/DX2                !
 ! A48   A(25,23,26)           109.4712         estimate D2E/DX2                !
 ! A49   A(23,26,27)           109.4712         estimate D2E/DX2                !
 ! A50   A(23,26,28)           109.4712         estimate D2E/DX2                !
 ! A51   A(23,26,29)           109.4712         estimate D2E/DX2                !
 ! A52   A(27,26,28)           109.4712         estimate D2E/DX2                !
 ! A53   A(27,26,29)           109.4712         estimate D2E/DX2                !
 ! A54   A(28,26,29)           109.4712         estimate D2E/DX2                !
 ! A55   A(26,29,30)           109.4712         estimate D2E/DX2                !
 ! A56   A(26,29,31)           109.4712         estimate D2E/DX2                !
 ! A57   A(26,29,32)           109.4712         estimate D2E/DX2                !
 ! A58   A(30,29,31)           109.4712         estimate D2E/DX2                !
 ! A59   A(30,29,32)           109.4712         estimate D2E/DX2                !
 ! A60   A(31,29,32)           109.4712         estimate D2E/DX2                !
 ! A61   A(29,32,33)           109.4712         estimate D2E/DX2                !
 ! A62   A(29,32,34)           109.4712         estimate D2E/DX2                !
 ! A63   A(29,32,35)           109.4712         estimate D2E/DX2                !
 ! A64   A(33,32,34)           109.4712         estimate D2E/DX2                !
 ! A65   A(33,32,35)           109.4712         estimate D2E/DX2                !
 ! A66   A(34,32,35)           109.4712         estimate D2E/DX2                !
 ! A67   A(32,35,36)           109.4712         estimate D2E/DX2                !
 ! A68   A(32,35,37)           109.4712         estimate D2E/DX2                !
 ! A69   A(32,35,38)           109.4712         estimate D2E/DX2                !
 ! A70   A(36,35,37)           109.4712         estimate D2E/DX2                !
 ! A71   A(36,35,38)           109.4712         estimate D2E/DX2                !
 ! A72   A(37,35,38)           109.4712         estimate D2E/DX2                !
 ! A73   A(35,38,39)           109.4712         estimate D2E/DX2                !
 ! A74   A(35,38,40)           109.4712         estimate D2E/DX2                !
 ! A75   A(35,38,41)           109.4712         estimate D2E/DX2                !
 ! A76   A(39,38,40)           109.4712         estimate D2E/DX2                !
 ! A77   A(39,38,41)           109.4712         estimate D2E/DX2                !
 ! A78   A(40,38,41)           109.4712         estimate D2E/DX2                !
 ! A79   A(38,41,42)           109.4712         estimate D2E/DX2                !
 ! A80   A(38,41,43)           109.4712         estimate D2E/DX2                !
 ! A81   A(38,41,44)           109.4712         estimate D2E/DX2                !
 ! A82   A(42,41,43)           109.4712         estimate D2E/DX2                !
 ! A83   A(42,41,44)           109.4712         estimate D2E/DX2                !
 ! A84   A(43,41,44)           109.4712         estimate D2E/DX2                !
 ! A85   A(41,44,45)           109.4712         estimate D2E/DX2                !
 ! A86   A(41,44,46)           109.4712         estimate D2E/DX2                !
 ! A87   A(41,44,47)           109.4712         estimate D2E/DX2                !
 ! A88   A(45,44,46)           109.4712         estimate D2E/DX2                !
 ! A89   A(45,44,47)           109.4712         estimate D2E/DX2                !
 ! A90   A(46,44,47)           109.4712         estimate D2E/DX2                !
 ! A91   A(44,47,48)           109.4712         estimate D2E/DX2                !
 ! A92   A(44,47,49)           109.4712         estimate D2E/DX2                !
 ! A93   A(44,47,50)           109.4712         estimate D2E/DX2                !
 ! A94   A(48,47,49)           109.4712         estimate D2E/DX2                !
 ! A95   A(48,47,50)           109.4712         estimate D2E/DX2                !
 ! A96   A(49,47,50)           109.4712         estimate D2E/DX2                !
 ! A97   A(47,50,51)           109.4712         estimate D2E/DX2                !
 ! A98   A(47,50,52)           109.4712         estimate D2E/DX2                !
 ! A99   A(47,50,53)           109.4712         estimate D2E/DX2                !
 ! A100  A(51,50,52)           109.4712         estimate D2E/DX2                !
 ! A101  A(51,50,53)           109.4712         estimate D2E/DX2                !
 ! A102  A(52,50,53)           109.4712         estimate D2E/DX2                !
 ! A103  A(50,53,54)           109.4712         estimate D2E/DX2                !
 ! A104  A(50,53,55)           109.4712         estimate D2E/DX2                !
 ! A105  A(50,53,56)           109.4712         estimate D2E/DX2                !
 ! A106  A(54,53,55)           109.4712         estimate D2E/DX2                !
 ! A107  A(54,53,56)           109.4712         estimate D2E/DX2                !
 ! A108  A(55,53,56)           109.4712         estimate D2E/DX2                !
 ! A109  A(53,56,57)           109.4712         estimate D2E/DX2                !
 ! A110  A(53,56,58)           109.4712         estimate D2E/DX2                !
 ! A111  A(53,56,59)           109.4712         estimate D2E/DX2                !
 ! A112  A(57,56,58)           109.4712         estimate D2E/DX2                !
 ! A113  A(57,56,59)           109.4712         estimate D2E/DX2                !
 ! A114  A(58,56,59)           109.4712         estimate D2E/DX2                !
 ! A115  A(56,59,60)           109.4712         estimate D2E/DX2                !
 ! A116  A(56,59,61)           109.4712         estimate D2E/DX2                !
 ! A117  A(56,59,62)           109.4712         estimate D2E/DX2                !
 ! A118  A(60,59,61)           109.4712         estimate D2E/DX2                !
 ! A119  A(60,59,62)           109.4712         estimate D2E/DX2                !
 ! A120  A(61,59,62)           109.4712         estimate D2E/DX2                !
 ! D1    D(2,1,5,6)            180.0            estimate D2E/DX2                !
 ! D2    D(2,1,5,7)            -60.0            estimate D2E/DX2                !
 ! D3    D(2,1,5,8)             60.0            estimate D2E/DX2                !
 ! D4    D(3,1,5,6)             60.0            estimate D2E/DX2                !
 ! D5    D(3,1,5,7)            180.0            estimate D2E/DX2                !
 ! D6    D(3,1,5,8)            -60.0            estimate D2E/DX2                !
 ! D7    D(4,1,5,6)            -60.0            estimate D2E/DX2                !
 ! D8    D(4,1,5,7)             60.0            estimate D2E/DX2                !
 ! D9    D(4,1,5,8)            180.0            estimate D2E/DX2                !
 ! D10   D(1,5,8,9)             60.0            estimate D2E/DX2                !
 ! D11   D(1,5,8,10)           -60.0            estimate D2E/DX2                !
 ! D12   D(1,5,8,11)           180.0            estimate D2E/DX2                !
 ! D13   D(6,5,8,9)            -60.0            estimate D2E/DX2                !
 ! D14   D(6,5,8,10)           180.0            estimate D2E/DX2                !
 ! D15   D(6,5,8,11)            60.0            estimate D2E/DX2                !
 ! D16   D(7,5,8,9)            180.0            estimate D2E/DX2                !
 ! D17   D(7,5,8,10)            60.0            estimate D2E/DX2                !
 ! D18   D(7,5,8,11)           -60.0            estimate D2E/DX2                !
 ! D19   D(5,8,11,12)           60.0            estimate D2E/DX2                !
 ! D20   D(5,8,11,13)          -60.0            estimate D2E/DX2                !
 ! D21   D(5,8,11,14)          180.0            estimate D2E/DX2                !
 ! D22   D(9,8,11,12)          180.0            estimate D2E/DX2                !
 ! D23   D(9,8,11,13)           60.0            estimate D2E/DX2                !
 ! D24   D(9,8,11,14)          -60.0            estimate D2E/DX2                !
 ! D25   D(10,8,11,12)         -60.0            estimate D2E/DX2                !
 ! D26   D(10,8,11,13)         180.0            estimate D2E/DX2                !
 ! D27   D(10,8,11,14)          60.0            estimate D2E/DX2                !
 ! D28   D(8,11,14,15)          59.9999         estimate D2E/DX2                !
 ! D29   D(8,11,14,16)         -60.0001         estimate D2E/DX2                !
 ! D30   D(8,11,14,17)         179.9999         estimate D2E/DX2                !
 ! D31   D(12,11,14,15)        179.9999         estimate D2E/DX2                !
 ! D32   D(12,11,14,16)         59.9999         estimate D2E/DX2                !
 ! D33   D(12,11,14,17)        -60.0001         estimate D2E/DX2                !
 ! D34   D(13,11,14,15)        -60.0001         estimate D2E/DX2                !
 ! D35   D(13,11,14,16)        179.9999         estimate D2E/DX2                !
 ! D36   D(13,11,14,17)         59.9999         estimate D2E/DX2                !
 ! D37   D(11,14,17,18)         60.0            estimate D2E/DX2                !
 ! D38   D(11,14,17,19)        -60.0            estimate D2E/DX2                !
 ! D39   D(11,14,17,20)        180.0            estimate D2E/DX2                !
 ! D40   D(15,14,17,18)        180.0            estimate D2E/DX2                !
 ! D41   D(15,14,17,19)         60.0            estimate D2E/DX2                !
 ! D42   D(15,14,17,20)        -60.0            estimate D2E/DX2                !
 ! D43   D(16,14,17,18)        -60.0            estimate D2E/DX2                !
 ! D44   D(16,14,17,19)        180.0            estimate D2E/DX2                !
 ! D45   D(16,14,17,20)         60.0            estimate D2E/DX2                !
 ! D46   D(14,17,20,21)         59.9999         estimate D2E/DX2                !
 ! D47   D(14,17,20,22)        -60.0001         estimate D2E/DX2                !
 ! D48   D(14,17,20,23)        179.9999         estimate D2E/DX2                !
 ! D49   D(18,17,20,21)        179.9999         estimate D2E/DX2                !
 ! D50   D(18,17,20,22)         59.9999         estimate D2E/DX2                !
 ! D51   D(18,17,20,23)        -60.0001         estimate D2E/DX2                !
 ! D52   D(19,17,20,21)        -60.0001         estimate D2E/DX2                !
 ! D53   D(19,17,20,22)        179.9999         estimate D2E/DX2                !
 ! D54   D(19,17,20,23)         59.9999         estimate D2E/DX2                !
 ! D55   D(17,20,23,24)         60.0            estimate D2E/DX2                !
 ! D56   D(17,20,23,25)        -60.0            estimate D2E/DX2                !
 ! D57   D(17,20,23,26)        180.0            estimate D2E/DX2                !
 ! D58   D(21,20,23,24)        180.0            estimate D2E/DX2                !
 ! D59   D(21,20,23,25)         60.0            estimate D2E/DX2                !
 ! D60   D(21,20,23,26)        -60.0            estimate D2E/DX2                !
 ! D61   D(22,20,23,24)        -60.0            estimate D2E/DX2                !
 ! D62   D(22,20,23,25)        180.0            estimate D2E/DX2                !
 ! D63   D(22,20,23,26)         60.0            estimate D2E/DX2                !
 ! D64   D(20,23,26,27)         59.9999         estimate D2E/DX2                !
 ! D65   D(20,23,26,28)        -60.0001         estimate D2E/DX2                !
 ! D66   D(20,23,26,29)        179.9999         estimate D2E/DX2                !
 ! D67   D(24,23,26,27)        179.9999         estimate D2E/DX2                !
 ! D68   D(24,23,26,28)         59.9999         estimate D2E/DX2                !
 ! D69   D(24,23,26,29)        -60.0001         estimate D2E/DX2                !
 ! D70   D(25,23,26,27)        -60.0001         estimate D2E/DX2                !
 ! D71   D(25,23,26,28)        179.9999         estimate D2E/DX2                !
 ! D72   D(25,23,26,29)         59.9999         estimate D2E/DX2                !
 ! D73   D(23,26,29,30)         59.9999         estimate D2E/DX2                !
 ! D74   D(23,26,29,31)        -60.0001         estimate D2E/DX2                !
 ! D75   D(23,26,29,32)        179.9999         estimate D2E/DX2                !
 ! D76   D(27,26,29,30)        179.9999         estimate D2E/DX2                !
 ! D77   D(27,26,29,31)         59.9999         estimate D2E/DX2                !
 ! D78   D(27,26,29,32)        -60.0001         estimate D2E/DX2                !
 ! D79   D(28,26,29,30)        -60.0001         estimate D2E/DX2                !
 ! D80   D(28,26,29,31)        179.9999         estimate D2E/DX2                !
 ! D81   D(28,26,29,32)         59.9999         estimate D2E/DX2                !
 ! D82   D(26,29,32,33)         59.9999         estimate D2E/DX2                !
 ! D83   D(26,29,32,34)        -60.0001         estimate D2E/DX2                !
 ! D84   D(26,29,32,35)        179.9999         estimate D2E/DX2                !
 ! D85   D(30,29,32,33)        179.9999         estimate D2E/DX2                !
 ! D86   D(30,29,32,34)         59.9999         estimate D2E/DX2                !
 ! D87   D(30,29,32,35)        -60.0001         estimate D2E/DX2                !
 ! D88   D(31,29,32,33)        -60.0001         estimate D2E/DX2                !
 ! D89   D(31,29,32,34)        179.9999         estimate D2E/DX2                !
 ! D90   D(31,29,32,35)         59.9999         estimate D2E/DX2                !
 ! D91   D(29,32,35,36)         59.9999         estimate D2E/DX2                !
 ! D92   D(29,32,35,37)        -60.0001         estimate D2E/DX2                !
 ! D93   D(29,32,35,38)        179.9999         estimate D2E/DX2                !
 ! D94   D(33,32,35,36)        179.9999         estimate D2E/DX2                !
 ! D95   D(33,32,35,37)         59.9999         estimate D2E/DX2                !
 ! D96   D(33,32,35,38)        -60.0001         estimate D2E/DX2                !
 ! D97   D(34,32,35,36)        -60.0001         estimate D2E/DX2                !
 ! D98   D(34,32,35,37)        179.9999         estimate D2E/DX2                !
 ! D99   D(34,32,35,38)         59.9999         estimate D2E/DX2                !
 ! D100  D(32,35,38,39)         60.0            estimate D2E/DX2                !
 ! D101  D(32,35,38,40)        -60.0            estimate D2E/DX2                !
 ! D102  D(32,35,38,41)        180.0            estimate D2E/DX2                !
 ! D103  D(36,35,38,39)        180.0            estimate D2E/DX2                !
 ! D104  D(36,35,38,40)         60.0            estimate D2E/DX2                !
 ! D105  D(36,35,38,41)        -60.0            estimate D2E/DX2                !
 ! D106  D(37,35,38,39)        -60.0            estimate D2E/DX2                !
 ! D107  D(37,35,38,40)        180.0            estimate D2E/DX2                !
 ! D108  D(37,35,38,41)         60.0            estimate D2E/DX2                !
 ! D109  D(35,38,41,42)         59.9999         estimate D2E/DX2                !
 ! D110  D(35,38,41,43)        -60.0001         estimate D2E/DX2                !
 ! D111  D(35,38,41,44)        179.9999         estimate D2E/DX2                !
 ! D112  D(39,38,41,42)        179.9999         estimate D2E/DX2                !
 ! D113  D(39,38,41,43)         59.9999         estimate D2E/DX2                !
 ! D114  D(39,38,41,44)        -60.0001         estimate D2E/DX2                !
 ! D115  D(40,38,41,42)        -60.0001         estimate D2E/DX2                !
 ! D116  D(40,38,41,43)        179.9999         estimate D2E/DX2                !
 ! D117  D(40,38,41,44)         59.9999         estimate D2E/DX2                !
 ! D118  D(38,41,44,45)         60.0            estimate D2E/DX2                !
 ! D119  D(38,41,44,46)        -60.0            estimate D2E/DX2                !
 ! D120  D(38,41,44,47)        180.0            estimate D2E/DX2                !
 ! D121  D(42,41,44,45)        180.0            estimate D2E/DX2                !
 ! D122  D(42,41,44,46)         60.0            estimate D2E/DX2                !
 ! D123  D(42,41,44,47)        -60.0            estimate D2E/DX2                !
 ! D124  D(43,41,44,45)        -60.0            estimate D2E/DX2                !
 ! D125  D(43,41,44,46)        180.0            estimate D2E/DX2                !
 ! D126  D(43,41,44,47)         60.0            estimate D2E/DX2                !
 ! D127  D(41,44,47,48)         59.9999         estimate D2E/DX2                !
 ! D128  D(41,44,47,49)        -60.0001         estimate D2E/DX2                !
 ! D129  D(41,44,47,50)        179.9999         estimate D2E/DX2                !
 ! D130  D(45,44,47,48)        179.9999         estimate D2E/DX2                !
 ! D131  D(45,44,47,49)         59.9999         estimate D2E/DX2                !
 ! D132  D(45,44,47,50)        -60.0001         estimate D2E/DX2                !
 ! D133  D(46,44,47,48)        -60.0001         estimate D2E/DX2                !
 ! D134  D(46,44,47,49)        179.9999         estimate D2E/DX2                !
 ! D135  D(46,44,47,50)         59.9999         estimate D2E/DX2                !
 ! D136  D(44,47,50,51)         60.0            estimate D2E/DX2                !
 ! D137  D(44,47,50,52)        -60.0            estimate D2E/DX2                !
 ! D138  D(44,47,50,53)        180.0            estimate D2E/DX2                !
 ! D139  D(48,47,50,51)        180.0            estimate D2E/DX2                !
 ! D140  D(48,47,50,52)         60.0            estimate D2E/DX2                !
 ! D141  D(48,47,50,53)        -60.0            estimate D2E/DX2                !
 ! D142  D(49,47,50,51)        -60.0            estimate D2E/DX2                !
 ! D143  D(49,47,50,52)        180.0            estimate D2E/DX2                !
 ! D144  D(49,47,50,53)         60.0            estimate D2E/DX2                !
 ! D145  D(47,50,53,54)         60.0            estimate D2E/DX2                !
 ! D146  D(47,50,53,55)        -60.0            estimate D2E/DX2                !
 ! D147  D(47,50,53,56)        180.0            estimate D2E/DX2                !
 ! D148  D(51,50,53,54)        180.0            estimate D2E/DX2                !
 ! D149  D(51,50,53,55)         60.0            estimate D2E/DX2                !
 ! D150  D(51,50,53,56)        -60.0            estimate D2E/DX2                !
 ! D151  D(52,50,53,54)        -60.0            estimate D2E/DX2                !
 ! D152  D(52,50,53,55)        180.0            estimate D2E/DX2                !
 ! D153  D(52,50,53,56)         60.0            estimate D2E/DX2                !
 ! D154  D(50,53,56,57)         60.0            estimate D2E/DX2                !
 ! D155  D(50,53,56,58)        -60.0            estimate D2E/DX2                !
 ! D156  D(50,53,56,59)       -180.0            estimate D2E/DX2                !
 ! D157  D(54,53,56,57)       -180.0            estimate D2E/DX2                !
 ! D158  D(54,53,56,58)         60.0            estimate D2E/DX2                !
 ! D159  D(54,53,56,59)        -60.0            estimate D2E/DX2                !
 ! D160  D(55,53,56,57)        -60.0            estimate D2E/DX2                !
 ! D161  D(55,53,56,58)       -180.0            estimate D2E/DX2                !
 ! D162  D(55,53,56,59)         60.0            estimate D2E/DX2                !
 ! D163  D(53,56,59,60)         60.0            estimate D2E/DX2                !
 ! D164  D(53,56,59,61)        180.0            estimate D2E/DX2                !
 ! D165  D(53,56,59,62)        -60.0            estimate D2E/DX2                !
 ! D166  D(57,56,59,60)       -180.0            estimate D2E/DX2                !
 ! D167  D(57,56,59,61)        -60.0            estimate D2E/DX2                !
 ! D168  D(57,56,59,62)         60.0            estimate D2E/DX2                !
 ! D169  D(58,56,59,60)        -60.0            estimate D2E/DX2                !
 ! D170  D(58,56,59,61)         60.0            estimate D2E/DX2                !
 ! D171  D(58,56,59,62)       -180.0            estimate D2E/DX2                !
 --------------------------------------------------------------------------------
 Trust Radius=3.00D-01 FncErr=1.00D-07 GrdErr=1.00D-06 EigMax=2.50D+02 EigMin=1.00D-04
 Number of steps in this run=    362 maximum allowed number of steps=    372.
 GradGradGradGradGradGradGradGradGradGradGradGradGradGradGradGradGradGrad

 Stoichiometry    C20H42
 Framework group  C1[X(C20H42)]
 Deg. of freedom   180
 Full point group                 C1      NOp   1
 Largest Abelian subgroup         C1      NOp   1
 Largest concise Abelian subgroup C1      NOp   1
                         Standard orientation:                         
 ---------------------------------------------------------------------
 Center     Atomic      Atomic             Coordinates (Angstroms)
 Number     Number       Type             X           Y           Z
 ---------------------------------------------------------------------
      1          6           0       11.947959   -0.367665    0.000005
      2          1           0       11.951936   -0.985422   -0.873643
      3          1           0       11.951935   -0.985411    0.873660
      4          1           0       12.817616    0.255711    0.000002
      5          6           0       10.684857    0.513343   -0.000002
      6          1           0       10.680880    1.131100    0.873646
      7          1           0       10.680882    1.131090   -0.873656
      8          6           0        9.433202   -0.383851    0.000002
      9          1           0        9.437177   -1.001599    0.873656
     10          1           0        9.437178   -1.001607   -0.873646
     11          6           0        8.170100    0.497157   -0.000003
     12          1           0        8.166124    1.114905   -0.873657
     13          1           0        8.166123    1.114913    0.873645
     14          6           0        6.918444   -0.400038    0.000000
     15          1           0        6.922420   -1.017786    0.873654
     16          1           0        6.922421   -1.017793   -0.873649
     17          6           0        5.655343    0.480970   -0.000004
     18          1           0        5.651367    1.098719   -0.873657
     19          1           0        5.651366    1.098725    0.873646
     20          6           0        4.403687   -0.416224   -0.000001
     21          1           0        4.407663   -1.033974    0.873652
     22          1           0        4.407663   -1.033978   -0.873651
     23          6           0        3.140585    0.464784   -0.000003
     24          1           0        3.136609    1.082534   -0.873655
     25          1           0        3.136609    1.082537    0.873648
     26          6           0        1.888929   -0.432411   -0.000001
     27          1           0        1.892906   -1.050162    0.873651
     28          1           0        1.892905   -1.050163   -0.873651
     29          6           0        0.625828    0.448597    0.000000
     30          1           0        0.621851    1.066349   -0.873652
     31          1           0        0.621852    1.066349    0.873651
     32          6           0       -0.625828   -0.448597    0.000000
     33          1           0       -0.621851   -1.066350    0.873651
     34          1           0       -0.621852   -1.066348   -0.873652
     35          6           0       -1.888929    0.432411    0.000002
     36          1           0       -1.892906    1.050164   -0.873648
     37          1           0       -1.892905    1.050161    0.873655
     38          6           0       -3.140585   -0.464784    0.000001
     39          1           0       -3.136609   -1.082538    0.873651
     40          1           0       -3.136609   -1.082534   -0.873652
     41          6           0       -4.403687    0.416224    0.000004
     42          1           0       -4.407663    1.033979   -0.873646
     43          1           0       -4.407663    1.033973    0.873657
     44          6           0       -5.655343   -0.480970    0.000000
     45          1           0       -5.651366   -1.098726    0.873649
     46          1           0       -5.651366   -1.098718   -0.873654
     47          6           0       -6.918444    0.400038    0.000004
     48          1           0       -6.922420    1.017794   -0.873644
     49          1           0       -6.922421    1.017785    0.873658
     50          6           0       -8.170100   -0.497157   -0.000002
     51          1           0       -8.166124   -1.114914    0.873646
     52          1           0       -8.166123   -1.114904   -0.873657
     53          6           0       -9.433202    0.383851    0.000002
     54          1           0       -9.437177    1.001608   -0.873646
     55          1           0       -9.437179    1.001598    0.873657
     56          6           0      -10.684857   -0.513343   -0.000004
     57          1           0      -10.680882   -1.131100    0.873644
     58          1           0      -10.680880   -1.131090   -0.873659
     59          6           0      -11.947959    0.367664   -0.000001
     60          1           0      -11.951934    0.985421   -0.873648
     61          1           0      -12.817616   -0.255711   -0.000005
     62          1           0      -11.951936    0.985412    0.873654
 ---------------------------------------------------------------------
 Rotational constants (GHZ):           4.1013912           0.0334717           0.0333355
 Standard basis: 6-31G (6D, 7F)
 There are   264 symmetry adapted cartesian basis functions of A   symmetry.
 There are   264 symmetry adapted basis functions of A   symmetry.
   264 basis functions,   608 primitive gaussians,   264 cartesian basis functions
    81 alpha electrons       81 beta electrons
       nuclear repulsion energy      1378.0518641526 Hartrees.
 NAtoms=   62 NActive=   62 NUniq=   62 SFac= 1.00D+00 NAtFMM=   60 NAOKFM=T Big=T
 Integral buffers will be    131072 words long.
 Raffenetti 2 integral format.
 Two-electron integral symmetry is turned on.
 One-electron integrals computed using PRISM.
 NBasis=   264 RedAO= T EigKep=  2.96D-03  NBF=   264
 NBsUse=   264 1.00D-06 EigRej= -1.00D+00 NBFU=   264
 ExpMin= 1.61D-01 ExpMax= 3.05D+03 ExpMxC= 4.57D+02 IAcc=3 IRadAn=         5 AccDes= 0.00D+00
 Harris functional with IExCor=  402 and IRadAn=       5 diagonalized for initial guess.
 HarFok:  IExCor=  402 AccDes= 0.00D+00 IRadAn=         5 IDoV= 1 UseB2=F ITyADJ=14
 ICtDFT=  3500011 ScaDFX=  1.000000  1.000000  1.000000  1.000000
 FoFCou: FMM=F IPFlag=           0 FMFlag=      100000 FMFlg1=        2001
         NFxFlg=           0 DoJE=T BraDBF=F KetDBF=T FulRan=T
         wScrn=  0.000000 ICntrl=       500 IOpCl=  0 I1Cent=   200000004 NGrid=           0
         NMat0=    1 NMatS0=      1 NMatT0=    0 NMatD0=    1 NMtDS0=    0 NMtDT0=    0
 Petite list used in FoFCou.
 Requested convergence on RMS density matrix=1.00D-08 within 128 cycles.
 Requested convergence on MAX density matrix=1.00D-06.
 Requested convergence on             energy=1.00D-06.
 No special actions if energy rises.
 Integral accuracy reduced to 1.0D-05 until final iterations.
 Initial convergence to 1.0D-05 achieved.  Increase integral accuracy.
 SCF Done:  E(RB3LYP) =  -787.246087401     A.U. after   11 cycles
            NFock= 11  Conv=0.21D-08     -V/T= 2.0035

 **********************************************************************

            Population analysis using the SCF Density.

 **********************************************************************

 Orbital symmetries:
       Occupied  (A) (A) (A) (A) (A) (A) (A) (A) (A) (A) (A) (A)
                 (A) (A) (A) (A) (A) (A) (A) (A) (A) (A) (A) (A)
                 (A) (A) (A) (A) (A) (A) (A) (A) (A) (A) (A) (A)
                 (A) (A) (A) (A) (A) (A) (A) (A) (A) (A) (A) (A)
                 (A) (A) (A) (A) (A) (A) (A) (A) (A) (A) (A) (A)
                 (A) (A) (A) (A) (A) (A) (A) (A) (A) (A) (A) (A)
                 (A) (A) (A) (A) (A) (A) (A) (A) (A)
       Virtual   (A) (A) (A) (A) (A) (A) (A) (A) (A) (A) (A) (A)
                 (A) (A) (A) (A) (A) (A) (A) (A) (A) (A) (A) (A)
                 (A) (A) (A) (A) (A) (A) (A) (A) (A) (A) (A) (A)
                 (A) (A) (A) (A) (A) (A) (A) (A) (A) (A) (A) (A)
                 (A) (A) (A) (A) (A) (A) (A) (A) (A) (A) (A) (A)
                 (A) (A) (A) (A) (A) (A) (A) (A) (A) (A) (A) (A)
                 (A) (A) (A) (A) (A) (A) (A) (A) (A) (A) (A) (A)
                 (A) (A) (A) (A) (A) (A) (A) (A) (A) (A) (A) (A)
                 (A) (A) (A) (A) (A) (A) (A) (A) (A) (A) (A) (A)
                 (A) (A) (A) (A) (A) (A) (A) (A) (A) (A) (A) (A)
                 (A) (A) (A) (A) (A) (A) (A) (A) (A) (A) (A) (A)
                 (A) (A) (A) (A) (A) (A) (A) (A) (A) (A) (A) (A)
                 (A) (A) (A) (A) (A) (A) (A) (A) (A) (A) (A) (A)
                 (A) (A) (A) (A) (A) (A) (A) (A) (A) (A) (A) (A)
                 (A) (A) (A) (A) (A) (A) (A) (A) (A) (A) (A) (A)
                 (A) (A) (A)
 The electronic state is 1-A.
 Alpha  occ. eigenvalues --  -10.16073 -10.16073 -10.15810 -10.15810 -10.15750
 Alpha  occ. eigenvalues --  -10.15750 -10.15723 -10.15723 -10.15698 -10.15698
 Alpha  occ. eigenvalues --  -10.15684 -10.15683 -10.15676 -10.15675 -10.15670
 Alpha  occ. eigenvalues --  -10.15665 -10.15659 -10.15653 -10.15238 -10.15238
 Alpha  occ. eigenvalues --   -0.81565  -0.81138  -0.80382  -0.79320  -0.77967
 Alpha  occ. eigenvalues --   -0.76337  -0.74445  -0.72313  -0.69969  -0.67460
 Alpha  occ. eigenvalues --   -0.64857  -0.62289  -0.59983  -0.58493  -0.58272
 Alpha  occ. eigenvalues --   -0.58234  -0.57766  -0.57494  -0.57086  -0.57017
 Alpha  occ. eigenvalues --   -0.49467  -0.49069  -0.48371  -0.47409  -0.46210
 Alpha  occ. eigenvalues --   -0.44810  -0.43251  -0.42841  -0.42766  -0.41897
 Alpha  occ. eigenvalues --   -0.41587  -0.41351  -0.40665  -0.39884  -0.39165
 Alpha  occ. eigenvalues --   -0.39075  -0.38217  -0.37567  -0.36666  -0.36162
 Alpha  occ. eigenvalues --   -0.36059  -0.35309  -0.34744  -0.34214  -0.33711
 Alpha  occ. eigenvalues --   -0.33417  -0.32967  -0.32953  -0.32920  -0.32748
 Alpha  occ. eigenvalues --   -0.32685  -0.32662  -0.32541  -0.32527  -0.32463
 Alpha  occ. eigenvalues --   -0.32188  -0.32036  -0.31950  -0.29868  -0.27205
 Alpha  occ. eigenvalues --   -0.25333
 Alpha virt. eigenvalues --    0.08768   0.09059   0.09538   0.10125   0.10767
 Alpha virt. eigenvalues --    0.11489   0.11654   0.12227   0.12424   0.12828
 Alpha virt. eigenvalues --    0.13216   0.13402   0.13726   0.14415   0.14589
 Alpha virt. eigenvalues --    0.15362   0.15947   0.16292   0.17125   0.17848
 Alpha virt. eigenvalues --    0.18186   0.18293   0.18909   0.19431   0.19752
 Alpha virt. eigenvalues --    0.20210   0.20629   0.20720   0.20721   0.20743
 Alpha virt. eigenvalues --    0.20817   0.21081   0.21361   0.21379   0.21530
 Alpha virt. eigenvalues --    0.21558   0.22014   0.22298   0.22355   0.22764
 Alpha virt. eigenvalues --    0.23231   0.23467   0.23515   0.23568   0.23665
 Alpha virt. eigenvalues --    0.23682   0.24507   0.24583   0.24750   0.25307
 Alpha virt. eigenvalues --    0.25512   0.26816   0.26955   0.27512   0.28779
 Alpha virt. eigenvalues --    0.28966   0.29333   0.32906   0.33181   0.37450
 Alpha virt. eigenvalues --    0.37596   0.46997   0.48960   0.51518   0.54058
 Alpha virt. eigenvalues --    0.54592   0.55399   0.56473   0.56572   0.57405
 Alpha virt. eigenvalues --    0.57407   0.58362   0.59045   0.59119   0.59556
 Alpha virt. eigenvalues --    0.59707   0.59980   0.60183   0.60218   0.60520
 Alpha virt. eigenvalues --    0.61352   0.61931   0.63860   0.63935   0.64237
 Alpha virt. eigenvalues --    0.65513   0.67307   0.67376   0.67387   0.68468
 Alpha virt. eigenvalues --    0.69719   0.69928   0.71489   0.71586   0.72190
 Alpha virt. eigenvalues --    0.72966   0.72997   0.74264   0.75097   0.75918
 Alpha virt. eigenvalues --    0.77016   0.77194   0.79579   0.79841   0.80106
 Alpha virt. eigenvalues --    0.82521   0.82559   0.83244   0.84125   0.84954
 Alpha virt. eigenvalues --    0.85086   0.85657   0.85984   0.86074   0.86171
 Alpha virt. eigenvalues --    0.89683   0.89949   0.90204   0.90512   0.91127
 Alpha virt. eigenvalues --    0.91330   0.92450   0.94164   0.96104   0.96224
 Alpha virt. eigenvalues --    0.96579   0.96864   0.97505   0.97591   0.98491
 Alpha virt. eigenvalues --    0.99124   1.00034   1.00724   1.01478   1.01690
 Alpha virt. eigenvalues --    1.02656   1.02732   1.03038   1.03218   1.03330
 Alpha virt. eigenvalues --    1.03412   1.03502   1.03757   1.04134   1.04552
 Alpha virt. eigenvalues --    1.04569   1.04621   1.04822   1.05380   1.05440
 Alpha virt. eigenvalues --    1.05444   1.06259   1.07545   1.08519   1.10328
 Alpha virt. eigenvalues --    1.10659   1.15750   1.18194   1.19518   1.23290
 Alpha virt. eigenvalues --    1.24136   1.25281   1.30530   1.34697   1.34850
 Alpha virt. eigenvalues --    1.38474   1.41668   1.44546   1.45350   1.47066
 Alpha virt. eigenvalues --    1.49125   1.50663   1.51631   1.52296   1.53855
 Alpha virt. eigenvalues --    1.54260   1.58924   1.59392   1.68598   1.81714
 Alpha virt. eigenvalues --    1.96096   2.07180   2.12453
          Condensed to atoms (all electrons):
 Mulliken charges:
               1
     1  C   -0.403621
     2  H    0.130609
     3  H    0.130609
     4  H    0.126906
     5  C   -0.240300
     6  H    0.122773
     7  H    0.122773
     8  C   -0.230727
     9  H    0.119325
    10  H    0.119325
    11  C   -0.237502
    12  H    0.119393
    13  H    0.119393
    14  C   -0.238015
    15  H    0.119104
    16  H    0.119104
    17  C   -0.237566
    18  H    0.118958
    19  H    0.118958
    20  C   -0.237546
    21  H    0.118866
    22  H    0.118866
    23  C   -0.237519
    24  H    0.118825
    25  H    0.118825
    26  C   -0.237500
    27  H    0.118800
    28  H    0.118800
    29  C   -0.237494
    30  H    0.118790
    31  H    0.118790
    32  C   -0.237494
    33  H    0.118790
    34  H    0.118790
    35  C   -0.237500
    36  H    0.118800
    37  H    0.118800
    38  C   -0.237519
    39  H    0.118825
    40  H    0.118825
    41  C   -0.237546
    42  H    0.118866
    43  H    0.118866
    44  C   -0.237566
    45  H    0.118958
    46  H    0.118958
    47  C   -0.238015
    48  H    0.119104
    49  H    0.119104
    50  C   -0.237502
    51  H    0.119393
    52  H    0.119393
    53  C   -0.230727
    54  H    0.119325
    55  H    0.119325
    56  C   -0.240300
    57  H    0.122773
    58  H    0.122773
    59  C   -0.403621
    60  H    0.130609
    61  H    0.126906
    62  H    0.130609
 Sum of Mulliken charges =   0.00000
 Mulliken charges with hydrogens summed into heavy atoms:
               1
     1  C   -0.015498
     5  C    0.005246
     8  C    0.007922
    11  C    0.001284
    14  C    0.000193
    17  C    0.000350
    20  C    0.000186
    23  C    0.000131
    26  C    0.000099
    29  C    0.000086
    32  C    0.000086
    35  C    0.000099
    38  C    0.000131
    41  C    0.000186
    44  C    0.000350
    47  C    0.000193
    50  C    0.001284
    53  C    0.007922
    56  C    0.005246
    59  C   -0.015498
 Electronic spatial extent (au):  <R**2>=          31869.4268
 Charge=              0.0000 electrons
 Dipole moment (field-independent basis, Debye):
    X=              0.0000    Y=              0.0000    Z=              0.0000  Tot=              0.0000
 Quadrupole moment (field-independent basis, Debye-Ang):
   XX=           -142.1109   YY=           -135.4779   ZZ=           -130.5510
   XY=              1.0484   XZ=              0.0000   YZ=              0.0000
 Traceless Quadrupole moment (field-independent basis, Debye-Ang):
   XX=             -6.0643   YY=              0.5687   ZZ=              5.4956
   XY=              1.0484   XZ=              0.0000   YZ=              0.0000
 Octapole moment (field-independent basis, Debye-Ang**2):
  XXX=              0.0000  YYY=              0.0000  ZZZ=              0.0000  XYY=              0.0000
  XXY=              0.0000  XXZ=             -0.0001  XZZ=              0.0000  YZZ=              0.0000
  YYZ=              0.0000  XYZ=              0.0001
 Hexadecapole moment (field-independent basis, Debye-Ang**3):
 XXXX=         -45637.4039 YYYY=           -481.7320 ZZZZ=           -268.5630 XXXY=            258.6248
 XXXZ=             -0.0013 YYYX=              1.0848 YYYZ=              0.0000 ZZZX=              0.0000
 ZZZY=              0.0000 XXYY=          -7395.5996 XXZZ=          -7131.6582 YYZZ=           -115.6033
 XXYZ=              0.0001 YYXZ=              0.0000 ZZXY=             -4.4856
 N-N= 1.378051864153D+03 E-N=-4.578561640067D+03  KE= 7.844684671782D+02
 Calling FoFJK, ICntrl=      2127 FMM=T ISym2X=0 I1Cent= 0 IOpClX= 0 NMat=1 NMatS=1 NMatT=0.
 ***** Axes restored to original set *****
 -------------------------------------------------------------------
 Center     Atomic                   Forces (Hartrees/Bohr)
 Number     Number              X              Y              Z
 -------------------------------------------------------------------
      1        6          -0.000056533    0.012016738    0.020809455
      2        1           0.004438587   -0.017585245   -0.002963120
      3        1           0.004443695    0.006222226   -0.016710960
      4        1          -0.018442128   -0.002707719   -0.004695889
      5        6           0.017456975   -0.016772626   -0.029038929
      6        1          -0.007387681    0.017697850    0.003120345
      7        1          -0.007392843   -0.006141418    0.016886604
      8        6          -0.025811687    0.017284538    0.029922188
      9        1           0.007756554    0.006741123   -0.016782155
     10        1           0.007751243   -0.017907283   -0.002548621
     11        6           0.024773360   -0.017760557   -0.030746976
     12        1          -0.007795984   -0.006737147    0.016637446
     13        1          -0.007790654    0.017779916    0.002479719
     14        6          -0.025204654    0.017750702    0.030729559
     15        1           0.007823721    0.006751399   -0.016643568
     16        1           0.007818428   -0.017792455   -0.002470395
     17        6           0.025150403   -0.017823697   -0.030855997
     18        1          -0.007810043   -0.006751557    0.016651541
     19        1          -0.007804695    0.017799396    0.002474246
     20        6          -0.025214739    0.017818659    0.030847094
     21        1           0.007814003    0.006754047   -0.016651736
     22        1           0.007808696   -0.017800838   -0.002472118
     23        6           0.025199451   -0.017833353   -0.030872562
     24        1          -0.007811783   -0.006753458    0.016653822
     25        1          -0.007806445    0.017802346    0.002473673
     26        6          -0.025214874    0.017832253    0.030870585
     27        1           0.007813118    0.006754078   -0.016653547
     28        1           0.007807811   -0.017802425   -0.002472946
     29        6           0.025211776   -0.017835110   -0.030875408
     30        1          -0.007812694   -0.006753935    0.016654022
     31        1          -0.007807316    0.017802789    0.002473303
     32        6          -0.025211794    0.017835164    0.030875363
     33        1           0.007812679    0.006753906   -0.016654033
     34        1           0.007807332   -0.017802796   -0.002473274
     35        6           0.025214876   -0.017832346   -0.030870515
     36        1          -0.007813160   -0.006754038    0.016653551
     37        1          -0.007807761    0.017802427    0.002472906
     38        6          -0.025199473    0.017833545    0.030872492
     39        1           0.007811813    0.006753382   -0.016653857
     40        1           0.007806438   -0.017802396   -0.002473596
     41        6           0.025214754   -0.017818831   -0.030846987
     42        1          -0.007814077   -0.006753963    0.016651761
     43        1          -0.007808620    0.017800853    0.002472031
     44        6          -0.025150399    0.017824055    0.030855797
     45        1           0.007810070    0.006751396   -0.016651543
     46        1           0.007804667   -0.017799471   -0.002474103
     47        6           0.025204658   -0.017751013   -0.030729403
     48        1          -0.007823819   -0.006751263    0.016643637
     49        1          -0.007818327    0.017792478    0.002470249
     50        6          -0.024773390    0.017760963    0.030746707
     51        1           0.007796050    0.006736954   -0.016637459
     52        1           0.007790584   -0.017779997   -0.002479546
     53        6           0.025811703   -0.017284936   -0.029921948
     54        1          -0.007756647   -0.006740936    0.016782187
     55        1          -0.007751145    0.017907350    0.002548443
     56        6          -0.017456983    0.016773003    0.029038724
     57        1           0.007392924    0.006141221   -0.016886643
     58        1           0.007387595   -0.017697922   -0.003120159
     59        6           0.000056535   -0.012016881   -0.020809351
     60        1          -0.004443795   -0.006222054    0.016711028
     61        1           0.018442119    0.002707660    0.004695925
     62        1          -0.004438475    0.017585249    0.002962940
 -------------------------------------------------------------------
 Cartesian Forces:  Max     0.030875408 RMS     0.016432018

 GradGradGradGradGradGradGradGradGradGradGradGradGradGradGradGradGradGrad
 Berny optimization.
 FormGI is forming the generalized inverse of G from B-inverse, IUseBI=4.
 Internal  Forces:  Max     0.019466346 RMS     0.008068387
 Search for a local minimum.
 Step number   1 out of a maximum of  362
 All quantities printed in internal units (Hartrees-Bohrs-Radians)
 Mixed Optimization -- RFO/linear search
 Second derivative matrix not updated -- first step.
 ITU=  0
     Eigenvalues ---    0.00237   0.00237   0.00237   0.00237   0.00237
     Eigenvalues ---    0.00237   0.00237   0.00237   0.00237   0.00237
     Eigenvalues ---    0.00237   0.00237   0.00237   0.00237   0.00237
     Eigenvalues ---    0.00237   0.00237   0.00237   0.00237   0.03840
     Eigenvalues ---    0.03840   0.03840   0.03840   0.03840   0.03840
     Eigenvalues ---    0.03840   0.03840   0.03840   0.03840   0.03840
     Eigenvalues ---    0.03840   0.03840   0.03840   0.03840   0.03840
     Eigenvalues ---    0.03840   0.03840   0.04896   0.04896   0.04896
     Eigenvalues ---    0.04896   0.04896   0.04896   0.04896   0.04896
     Eigenvalues ---    0.04896   0.04896   0.04896   0.04896   0.04896
     Eigenvalues ---    0.04896   0.04896   0.04896   0.04896   0.04896
     Eigenvalues ---    0.05720   0.05720   0.05720   0.05720   0.07655
     Eigenvalues ---    0.07655   0.07655   0.07655   0.07655   0.07655
     Eigenvalues ---    0.07655   0.07655   0.07655   0.07655   0.07655
     Eigenvalues ---    0.07655   0.07655   0.07655   0.07655   0.07655
     Eigenvalues ---    0.07655   0.07655   0.11701   0.11701   0.11701
     Eigenvalues ---    0.11701   0.11701   0.11701   0.11701   0.11701
     Eigenvalues ---    0.11701   0.11701   0.11701   0.11701   0.11701
     Eigenvalues ---    0.11701   0.11701   0.11701   0.11701   0.11701
     Eigenvalues ---    0.16000   0.16000   0.16000   0.16000   0.16000
     Eigenvalues ---    0.16000   0.21948   0.21948   0.21948   0.21948
     Eigenvalues ---    0.21948   0.21948   0.21948   0.21948   0.21948
     Eigenvalues ---    0.21948   0.21948   0.21948   0.21948   0.21948
     Eigenvalues ---    0.21948   0.21948   0.21948   0.21948   0.28519
     Eigenvalues ---    0.28519   0.28519   0.28519   0.28519   0.28519
     Eigenvalues ---    0.28519   0.28519   0.28519   0.28519   0.28519
     Eigenvalues ---    0.28519   0.28519   0.28519   0.28519   0.28519
     Eigenvalues ---    0.28519   0.28519   0.28519   0.37230   0.37230
     Eigenvalues ---    0.37230   0.37230   0.37230   0.37230   0.37230
     Eigenvalues ---    0.37230   0.37230   0.37230   0.37230   0.37230
     Eigenvalues ---    0.37230   0.37230   0.37230   0.37230   0.37230
     Eigenvalues ---    0.37230   0.37230   0.37230   0.37230   0.37230
     Eigenvalues ---    0.37230   0.37230   0.37230   0.37230   0.37230
     Eigenvalues ---    0.37230   0.37230   0.37230   0.37230   0.37230
     Eigenvalues ---    0.37230   0.37230   0.37230   0.37230   0.37230
     Eigenvalues ---    0.37230   0.37230   0.37230   0.37230   0.37230
 RFO step:  Lambda=-6.46965464D-02 EMin= 2.36823579D-03
 Linear search not attempted -- first point.
 Maximum step size (   0.300) exceeded in Quadratic search.
    -- Step size scaled by   0.732
 Iteration  1 RMS(Cart)=  0.12548808 RMS(Int)=  0.00023499
 Iteration  2 RMS(Cart)=  0.00096365 RMS(Int)=  0.00006169
 Iteration  3 RMS(Cart)=  0.00000022 RMS(Int)=  0.00006169
 Variable       Old X    -DE/DX   Delta X   Delta X   Delta X     New X
                                 (Linear)    (Quad)   (Total)
    R1        2.02201   0.01806   0.00000   0.03024   0.03024   2.05224
    R2        2.02201   0.01806   0.00000   0.03024   0.03024   2.05224
    R3        2.02201   0.01844   0.00000   0.03088   0.03088   2.05289
    R4        2.91018   0.00708   0.00000   0.01481   0.01481   2.92499
    R5        2.02201   0.01915   0.00000   0.03206   0.03206   2.05407
    R6        2.02201   0.01915   0.00000   0.03206   0.03206   2.05407
    R7        2.91018   0.00694   0.00000   0.01451   0.01451   2.92469
    R8        2.02201   0.01947   0.00000   0.03259   0.03259   2.05460
    R9        2.02201   0.01947   0.00000   0.03259   0.03259   2.05460
   R10        2.91018   0.00792   0.00000   0.01657   0.01657   2.92675
   R11        2.02201   0.01936   0.00000   0.03242   0.03242   2.05442
   R12        2.02201   0.01936   0.00000   0.03242   0.03242   2.05442
   R13        2.91018   0.00806   0.00000   0.01685   0.01685   2.92703
   R14        2.02201   0.01938   0.00000   0.03245   0.03245   2.05446
   R15        2.02201   0.01938   0.00000   0.03245   0.03245   2.05446
   R16        2.91018   0.00806   0.00000   0.01687   0.01687   2.92704
   R17        2.02201   0.01938   0.00000   0.03245   0.03245   2.05446
   R18        2.02201   0.01938   0.00000   0.03245   0.03245   2.05446
   R19        2.91018   0.00808   0.00000   0.01691   0.01691   2.92709
   R20        2.02201   0.01939   0.00000   0.03246   0.03246   2.05447
   R21        2.02201   0.01939   0.00000   0.03246   0.03246   2.05447
   R22        2.91018   0.00809   0.00000   0.01692   0.01692   2.92710
   R23        2.02201   0.01939   0.00000   0.03246   0.03246   2.05447
   R24        2.02201   0.01939   0.00000   0.03246   0.03246   2.05447
   R25        2.91018   0.00810   0.00000   0.01693   0.01693   2.92711
   R26        2.02201   0.01939   0.00000   0.03246   0.03246   2.05447
   R27        2.02201   0.01939   0.00000   0.03246   0.03246   2.05447
   R28        2.91018   0.00810   0.00000   0.01693   0.01693   2.92711
   R29        2.02201   0.01939   0.00000   0.03246   0.03246   2.05447
   R30        2.02201   0.01939   0.00000   0.03246   0.03246   2.05447
   R31        2.91018   0.00810   0.00000   0.01693   0.01693   2.92711
   R32        2.02201   0.01939   0.00000   0.03246   0.03246   2.05447
   R33        2.02201   0.01939   0.00000   0.03246   0.03246   2.05447
   R34        2.91018   0.00810   0.00000   0.01693   0.01693   2.92711
   R35        2.02201   0.01939   0.00000   0.03246   0.03246   2.05447
   R36        2.02201   0.01939   0.00000   0.03246   0.03246   2.05447
   R37        2.91018   0.00810   0.00000   0.01693   0.01693   2.92711
   R38        2.02201   0.01939   0.00000   0.03246   0.03246   2.05447
   R39        2.02201   0.01939   0.00000   0.03246   0.03246   2.05447
   R40        2.91018   0.00809   0.00000   0.01692   0.01692   2.92710
   R41        2.02201   0.01939   0.00000   0.03246   0.03246   2.05447
   R42        2.02201   0.01939   0.00000   0.03246   0.03246   2.05447
   R43        2.91018   0.00808   0.00000   0.01691   0.01691   2.92709
   R44        2.02201   0.01938   0.00000   0.03245   0.03245   2.05446
   R45        2.02201   0.01938   0.00000   0.03245   0.03245   2.05446
   R46        2.91018   0.00806   0.00000   0.01687   0.01687   2.92704
   R47        2.02201   0.01938   0.00000   0.03245   0.03245   2.05446
   R48        2.02201   0.01938   0.00000   0.03245   0.03245   2.05446
   R49        2.91018   0.00806   0.00000   0.01685   0.01685   2.92703
   R50        2.02201   0.01936   0.00000   0.03242   0.03242   2.05442
   R51        2.02201   0.01936   0.00000   0.03242   0.03242   2.05442
   R52        2.91018   0.00792   0.00000   0.01657   0.01657   2.92675
   R53        2.02201   0.01947   0.00000   0.03259   0.03259   2.05460
   R54        2.02201   0.01947   0.00000   0.03259   0.03259   2.05460
   R55        2.91018   0.00694   0.00000   0.01451   0.01451   2.92469
   R56        2.02201   0.01915   0.00000   0.03206   0.03206   2.05407
   R57        2.02201   0.01915   0.00000   0.03206   0.03206   2.05407
   R58        2.91018   0.00708   0.00000   0.01481   0.01481   2.92499
   R59        2.02201   0.01806   0.00000   0.03024   0.03024   2.05224
   R60        2.02201   0.01844   0.00000   0.03088   0.03088   2.05289
   R61        2.02201   0.01806   0.00000   0.03024   0.03024   2.05224
    A1        1.91063  -0.00343   0.00000  -0.01226  -0.01228   1.89835
    A2        1.91063  -0.00447   0.00000  -0.01400  -0.01413   1.89650
    A3        1.91063   0.00294   0.00000   0.00929   0.00921   1.91984
    A4        1.91063  -0.00447   0.00000  -0.01400  -0.01413   1.89650
    A5        1.91063   0.00294   0.00000   0.00929   0.00921   1.91984
    A6        1.91063   0.00649   0.00000   0.02169   0.02156   1.93219
    A7        1.91063  -0.00284   0.00000  -0.00447  -0.00450   1.90613
    A8        1.91063  -0.00284   0.00000  -0.00447  -0.00450   1.90613
    A9        1.91063   0.01252   0.00000   0.03571   0.03565   1.94628
   A10        1.91063   0.00023   0.00000  -0.01060  -0.01072   1.89991
   A11        1.91063  -0.00354   0.00000  -0.00809  -0.00820   1.90243
   A12        1.91063  -0.00354   0.00000  -0.00809  -0.00820   1.90243
   A13        1.91063  -0.00400   0.00000  -0.00849  -0.00858   1.90205
   A14        1.91063  -0.00400   0.00000  -0.00849  -0.00858   1.90205
   A15        1.91063   0.01495   0.00000   0.04207   0.04201   1.95264
   A16        1.91063   0.00081   0.00000  -0.00942  -0.00959   1.90105
   A17        1.91063  -0.00388   0.00000  -0.00784  -0.00792   1.90272
   A18        1.91063  -0.00388   0.00000  -0.00784  -0.00792   1.90272
   A19        1.91063  -0.00402   0.00000  -0.00834  -0.00842   1.90221
   A20        1.91063  -0.00402   0.00000  -0.00834  -0.00842   1.90221
   A21        1.91063   0.01523   0.00000   0.04281   0.04275   1.95338
   A22        1.91063   0.00086   0.00000  -0.00935  -0.00953   1.90111
   A23        1.91063  -0.00403   0.00000  -0.00839  -0.00848   1.90215
   A24        1.91063  -0.00403   0.00000  -0.00839  -0.00848   1.90215
   A25        1.91063  -0.00405   0.00000  -0.00841  -0.00850   1.90213
   A26        1.91063  -0.00405   0.00000  -0.00841  -0.00850   1.90213
   A27        1.91063   0.01536   0.00000   0.04317   0.04311   1.95375
   A28        1.91063   0.00088   0.00000  -0.00936  -0.00954   1.90109
   A29        1.91063  -0.00407   0.00000  -0.00849  -0.00858   1.90205
   A30        1.91063  -0.00407   0.00000  -0.00849  -0.00858   1.90205
   A31        1.91063  -0.00408   0.00000  -0.00849  -0.00858   1.90206
   A32        1.91063  -0.00408   0.00000  -0.00849  -0.00857   1.90206
   A33        1.91063   0.01542   0.00000   0.04331   0.04326   1.95389
   A34        1.91063   0.00089   0.00000  -0.00935  -0.00953   1.90111
   A35        1.91063  -0.00408   0.00000  -0.00850  -0.00858   1.90205
   A36        1.91063  -0.00408   0.00000  -0.00850  -0.00858   1.90205
   A37        1.91063  -0.00408   0.00000  -0.00850  -0.00859   1.90204
   A38        1.91063  -0.00408   0.00000  -0.00850  -0.00859   1.90204
   A39        1.91063   0.01544   0.00000   0.04338   0.04332   1.95396
   A40        1.91063   0.00090   0.00000  -0.00935  -0.00953   1.90111
   A41        1.91063  -0.00409   0.00000  -0.00852  -0.00860   1.90203
   A42        1.91063  -0.00409   0.00000  -0.00852  -0.00860   1.90203
   A43        1.91063  -0.00409   0.00000  -0.00851  -0.00860   1.90203
   A44        1.91063  -0.00409   0.00000  -0.00851  -0.00860   1.90203
   A45        1.91063   0.01545   0.00000   0.04341   0.04335   1.95398
   A46        1.91063   0.00090   0.00000  -0.00935  -0.00953   1.90111
   A47        1.91063  -0.00409   0.00000  -0.00852  -0.00860   1.90203
   A48        1.91063  -0.00409   0.00000  -0.00852  -0.00860   1.90203
   A49        1.91063  -0.00409   0.00000  -0.00852  -0.00860   1.90203
   A50        1.91063  -0.00409   0.00000  -0.00852  -0.00860   1.90203
   A51        1.91063   0.01546   0.00000   0.04342   0.04337   1.95400
   A52        1.91063   0.00090   0.00000  -0.00935  -0.00953   1.90111
   A53        1.91063  -0.00409   0.00000  -0.00852  -0.00861   1.90202
   A54        1.91063  -0.00409   0.00000  -0.00852  -0.00861   1.90202
   A55        1.91063  -0.00409   0.00000  -0.00852  -0.00861   1.90202
   A56        1.91063  -0.00409   0.00000  -0.00852  -0.00861   1.90202
   A57        1.91063   0.01546   0.00000   0.04343   0.04337   1.95400
   A58        1.91063   0.00090   0.00000  -0.00935  -0.00953   1.90111
   A59        1.91063  -0.00409   0.00000  -0.00852  -0.00861   1.90203
   A60        1.91063  -0.00409   0.00000  -0.00852  -0.00861   1.90203
   A61        1.91063  -0.00409   0.00000  -0.00852  -0.00861   1.90203
   A62        1.91063  -0.00409   0.00000  -0.00852  -0.00861   1.90203
   A63        1.91063   0.01546   0.00000   0.04343   0.04337   1.95400
   A64        1.91063   0.00090   0.00000  -0.00935  -0.00953   1.90111
   A65        1.91063  -0.00409   0.00000  -0.00852  -0.00861   1.90202
   A66        1.91063  -0.00409   0.00000  -0.00852  -0.00861   1.90202
   A67        1.91063  -0.00409   0.00000  -0.00852  -0.00861   1.90202
   A68        1.91063  -0.00409   0.00000  -0.00852  -0.00861   1.90202
   A69        1.91063   0.01546   0.00000   0.04342   0.04337   1.95400
   A70        1.91063   0.00090   0.00000  -0.00935  -0.00953   1.90111
   A71        1.91063  -0.00409   0.00000  -0.00852  -0.00860   1.90203
   A72        1.91063  -0.00409   0.00000  -0.00852  -0.00860   1.90203
   A73        1.91063  -0.00409   0.00000  -0.00852  -0.00860   1.90203
   A74        1.91063  -0.00409   0.00000  -0.00852  -0.00860   1.90203
   A75        1.91063   0.01545   0.00000   0.04341   0.04335   1.95398
   A76        1.91063   0.00090   0.00000  -0.00935  -0.00953   1.90111
   A77        1.91063  -0.00409   0.00000  -0.00851  -0.00860   1.90203
   A78        1.91063  -0.00409   0.00000  -0.00851  -0.00860   1.90203
   A79        1.91063  -0.00409   0.00000  -0.00852  -0.00860   1.90203
   A80        1.91063  -0.00409   0.00000  -0.00852  -0.00860   1.90203
   A81        1.91063   0.01544   0.00000   0.04338   0.04332   1.95396
   A82        1.91063   0.00090   0.00000  -0.00935  -0.00953   1.90111
   A83        1.91063  -0.00408   0.00000  -0.00850  -0.00859   1.90204
   A84        1.91063  -0.00408   0.00000  -0.00850  -0.00859   1.90204
   A85        1.91063  -0.00408   0.00000  -0.00850  -0.00858   1.90205
   A86        1.91063  -0.00408   0.00000  -0.00850  -0.00858   1.90205
   A87        1.91063   0.01542   0.00000   0.04331   0.04326   1.95389
   A88        1.91063   0.00089   0.00000  -0.00935  -0.00953   1.90111
   A89        1.91063  -0.00408   0.00000  -0.00849  -0.00857   1.90206
   A90        1.91063  -0.00408   0.00000  -0.00849  -0.00858   1.90206
   A91        1.91063  -0.00407   0.00000  -0.00849  -0.00858   1.90205
   A92        1.91063  -0.00407   0.00000  -0.00849  -0.00858   1.90205
   A93        1.91063   0.01536   0.00000   0.04317   0.04311   1.95375
   A94        1.91063   0.00088   0.00000  -0.00936  -0.00954   1.90109
   A95        1.91063  -0.00405   0.00000  -0.00841  -0.00850   1.90213
   A96        1.91063  -0.00405   0.00000  -0.00841  -0.00850   1.90213
   A97        1.91063  -0.00403   0.00000  -0.00839  -0.00848   1.90215
   A98        1.91063  -0.00403   0.00000  -0.00839  -0.00848   1.90215
   A99        1.91063   0.01523   0.00000   0.04281   0.04275   1.95338
   A100       1.91063   0.00086   0.00000  -0.00935  -0.00953   1.90111
   A101       1.91063  -0.00402   0.00000  -0.00834  -0.00842   1.90221
   A102       1.91063  -0.00402   0.00000  -0.00834  -0.00842   1.90221
   A103       1.91063  -0.00388   0.00000  -0.00784  -0.00792   1.90272
   A104       1.91063  -0.00388   0.00000  -0.00784  -0.00792   1.90272
   A105       1.91063   0.01495   0.00000   0.04207   0.04201   1.95264
   A106       1.91063   0.00081   0.00000  -0.00942  -0.00959   1.90105
   A107       1.91063  -0.00400   0.00000  -0.00849  -0.00858   1.90205
   A108       1.91063  -0.00400   0.00000  -0.00849  -0.00858   1.90205
   A109       1.91063  -0.00354   0.00000  -0.00809  -0.00820   1.90243
   A110       1.91063  -0.00354   0.00000  -0.00809  -0.00820   1.90243
   A111       1.91063   0.01252   0.00000   0.03571   0.03565   1.94628
   A112       1.91063   0.00023   0.00000  -0.01060  -0.01072   1.89991
   A113       1.91063  -0.00284   0.00000  -0.00447  -0.00450   1.90613
   A114       1.91063  -0.00284   0.00000  -0.00447  -0.00450   1.90613
   A115       1.91063   0.00294   0.00000   0.00929   0.00921   1.91984
   A116       1.91063   0.00649   0.00000   0.02169   0.02156   1.93219
   A117       1.91063   0.00294   0.00000   0.00929   0.00921   1.91984
   A118       1.91063  -0.00447   0.00000  -0.01400  -0.01413   1.89650
   A119       1.91063  -0.00343   0.00000  -0.01226  -0.01228   1.89835
   A120       1.91063  -0.00447   0.00000  -0.01400  -0.01413   1.89650
    D1        3.14159   0.00129   0.00000   0.00741   0.00740  -3.13419
    D2       -1.04720  -0.00190   0.00000  -0.01105  -0.01109  -1.05829
    D3        1.04720  -0.00030   0.00000  -0.00182  -0.00184   1.04535
    D4        1.04720   0.00190   0.00000   0.01105   0.01109   1.05829
    D5        3.14159  -0.00129   0.00000  -0.00741  -0.00740   3.13419
    D6       -1.04720   0.00030   0.00000   0.00182   0.00184  -1.04535
    D7       -1.04720   0.00160   0.00000   0.00923   0.00924  -1.03795
    D8        1.04720  -0.00160   0.00000  -0.00923  -0.00924   1.03795
    D9        3.14159   0.00000   0.00000   0.00000   0.00000   3.14159
   D10        1.04720  -0.00196   0.00000  -0.01096  -0.01094   1.03625
   D11       -1.04720   0.00196   0.00000   0.01096   0.01094  -1.03626
   D12        3.14159   0.00000   0.00000   0.00000   0.00000   3.14159
   D13       -1.04720  -0.00398   0.00000  -0.02241  -0.02235  -1.06955
   D14        3.14159  -0.00007   0.00000  -0.00048  -0.00047   3.14112
   D15        1.04720  -0.00202   0.00000  -0.01144  -0.01141   1.03579
   D16        3.14159   0.00007   0.00000   0.00048   0.00047  -3.14112
   D17        1.04720   0.00398   0.00000   0.02241   0.02235   1.06955
   D18       -1.04720   0.00202   0.00000   0.01144   0.01141  -1.03579
   D19        1.04720  -0.00193   0.00000  -0.01083  -0.01082   1.03638
   D20       -1.04720   0.00193   0.00000   0.01083   0.01082  -1.03638
   D21        3.14159   0.00000   0.00000   0.00000   0.00000   3.14159
   D22        3.14159  -0.00005   0.00000  -0.00026  -0.00026   3.14133
   D23        1.04720   0.00381   0.00000   0.02140   0.02137   1.06857
   D24       -1.04720   0.00188   0.00000   0.01057   0.01056  -1.03664
   D25       -1.04720  -0.00381   0.00000  -0.02140  -0.02137  -1.06857
   D26        3.14159   0.00005   0.00000   0.00026   0.00026  -3.14134
   D27        1.04720  -0.00188   0.00000  -0.01057  -0.01056   1.03664
   D28        1.04720  -0.00194   0.00000  -0.01088  -0.01087   1.03633
   D29       -1.04720   0.00194   0.00000   0.01088   0.01087  -1.03633
   D30        3.14159   0.00000   0.00000   0.00000   0.00000   3.14159
   D31        3.14159   0.00000   0.00000  -0.00002  -0.00002   3.14157
   D32        1.04720   0.00388   0.00000   0.02175   0.02172   1.06891
   D33       -1.04720   0.00194   0.00000   0.01087   0.01085  -1.03635
   D34       -1.04720  -0.00388   0.00000  -0.02175  -0.02172  -1.06892
   D35        3.14159   0.00000   0.00000   0.00002   0.00002  -3.14157
   D36        1.04720  -0.00194   0.00000  -0.01087  -0.01085   1.03635
   D37        1.04720  -0.00195   0.00000  -0.01092  -0.01090   1.03629
   D38       -1.04720   0.00195   0.00000   0.01092   0.01090  -1.03629
   D39        3.14159   0.00000   0.00000   0.00000   0.00000   3.14159
   D40        3.14159   0.00000   0.00000   0.00001   0.00001  -3.14158
   D41        1.04720   0.00390   0.00000   0.02185   0.02182   1.06902
   D42       -1.04720   0.00195   0.00000   0.01093   0.01092  -1.03628
   D43       -1.04720  -0.00390   0.00000  -0.02185  -0.02182  -1.06902
   D44        3.14159   0.00000   0.00000  -0.00001  -0.00001   3.14158
   D45        1.04720  -0.00195   0.00000  -0.01093  -0.01092   1.03628
   D46        1.04720  -0.00195   0.00000  -0.01093  -0.01091   1.03628
   D47       -1.04720   0.00195   0.00000   0.01093   0.01091  -1.03629
   D48        3.14159   0.00000   0.00000   0.00000   0.00000   3.14159
   D49        3.14159   0.00000   0.00000   0.00000   0.00000   3.14159
   D50        1.04720   0.00390   0.00000   0.02186   0.02182   1.06902
   D51       -1.04720   0.00195   0.00000   0.01093   0.01091  -1.03629
   D52       -1.04720  -0.00390   0.00000  -0.02186  -0.02182  -1.06902
   D53        3.14159   0.00000   0.00000   0.00000   0.00000  -3.14159
   D54        1.04720  -0.00195   0.00000  -0.01093  -0.01091   1.03629
   D55        1.04720  -0.00195   0.00000  -0.01094  -0.01092   1.03628
   D56       -1.04720   0.00195   0.00000   0.01094   0.01092  -1.03628
   D57        3.14159   0.00000   0.00000   0.00000   0.00000   3.14159
   D58        3.14159   0.00000   0.00000   0.00000   0.00000  -3.14159
   D59        1.04720   0.00391   0.00000   0.02187   0.02184   1.06904
   D60       -1.04720   0.00195   0.00000   0.01094   0.01092  -1.03628
   D61       -1.04720  -0.00391   0.00000  -0.02187  -0.02184  -1.06904
   D62        3.14159   0.00000   0.00000   0.00000   0.00000   3.14159
   D63        1.04720  -0.00195   0.00000  -0.01094  -0.01092   1.03628
   D64        1.04720  -0.00195   0.00000  -0.01094  -0.01092   1.03627
   D65       -1.04720   0.00195   0.00000   0.01094   0.01092  -1.03628
   D66        3.14159   0.00000   0.00000   0.00000   0.00000   3.14159
   D67        3.14159   0.00000   0.00000   0.00000   0.00000   3.14159
   D68        1.04720   0.00391   0.00000   0.02188   0.02184   1.06904
[...]
 ! D150  D(51,50,53,56)        -57.8683         -DE/DX =    0.0                 !
 ! D151  D(52,50,53,54)        -64.2407         -DE/DX =    0.0                 !
 ! D152  D(52,50,53,55)        179.9773         -DE/DX =    0.0                 !
 ! D153  D(52,50,53,56)         57.8683         -DE/DX =    0.0                 !
 ! D154  D(50,53,56,57)         57.8104         -DE/DX =    0.0                 !
 ! D155  D(50,53,56,58)        -57.8104         -DE/DX =    0.0                 !
 ! D156  D(50,53,56,59)        180.0            -DE/DX =    0.0                 !
 ! D157  D(54,53,56,57)        179.9825         -DE/DX =    0.0                 !
 ! D158  D(54,53,56,58)         64.3616         -DE/DX =    0.0                 !
 ! D159  D(54,53,56,59)        -57.828          -DE/DX =    0.0                 !
 ! D160  D(55,53,56,57)        -64.3616         -DE/DX =    0.0                 !
 ! D161  D(55,53,56,58)       -179.9825         -DE/DX =    0.0                 !
 ! D162  D(55,53,56,59)         57.828          -DE/DX =    0.0                 !
 ! D163  D(53,56,59,60)         59.8387         -DE/DX =    0.0                 !
 ! D164  D(53,56,59,61)        180.0            -DE/DX =    0.0                 !
 ! D165  D(53,56,59,62)        -59.8387         -DE/DX =    0.0                 !
 ! D166  D(57,56,59,60)       -178.1807         -DE/DX =    0.0                 !
 ! D167  D(57,56,59,61)        -58.0194         -DE/DX =    0.0                 !
 ! D168  D(57,56,59,62)         62.1419         -DE/DX =    0.0                 !
 ! D169  D(58,56,59,60)        -62.1419         -DE/DX =    0.0                 !
 ! D170  D(58,56,59,61)         58.0194         -DE/DX =    0.0                 !
 ! D171  D(58,56,59,62)        178.1807         -DE/DX =    0.0                 !
 --------------------------------------------------------------------------------
 GradGradGradGradGradGradGradGradGradGradGradGradGradGradGradGradGradGrad

 Stoichiometry    C20H42
 Framework group  C1[X(C20H42)]
 Deg. of freedom   180
 Full point group                 C1      NOp   1
 Largest Abelian subgroup         C1      NOp   1
 Largest concise Abelian subgroup C1      NOp   1
                         Standard orientation:                         
 ---------------------------------------------------------------------
 Center     Atomic      Atomic             Coordinates (Angstroms)
 Number     Number       Type             X           Y           Z
 ---------------------------------------------------------------------
      1          6           0       12.224274   -0.353559    0.000000
      2          1           0       12.271547   -1.000033   -0.885587
      3          1           0       12.271547   -1.000033    0.885587
      4          1           0       13.119293    0.279590    0.000000
      5          6           0       10.938939    0.489579    0.000000
      6          1           0       10.932953    1.150369    0.879632
      7          1           0       10.932953    1.150369   -0.879632
      8          6           0        9.656380   -0.362498    0.000000
      9          1           0        9.661632   -1.023894    0.880385
     10          1           0        9.661632   -1.023895   -0.880385
     11          6           0        8.363904    0.473703    0.000000
     12          1           0        8.359775    1.134962   -0.880400
     13          1           0        8.359775    1.134962    0.880399
     14          6           0        7.081858   -0.378627    0.000000
     15          1           0        7.085920   -1.039862    0.880378
     16          1           0        7.085920   -1.039862   -0.880378
     17          6           0        5.789488    0.457901    0.000000
     18          1           0        5.785409    1.119137   -0.880391
     19          1           0        5.785409    1.119137    0.880390
     20          6           0        4.507544   -0.394493    0.000000
     21          1           0        4.511615   -1.055728    0.880392
     22          1           0        4.511615   -1.055728   -0.880392
     23          6           0        3.215207    0.442050    0.000000
     24          1           0        3.211133    1.103284   -0.880393
     25          1           0        3.211133    1.103284    0.880393
     26          6           0        1.933281   -0.410354    0.000000
     27          1           0        1.937352   -1.071588    0.880394
     28          1           0        1.937352   -1.071588   -0.880394
     29          6           0        0.640961    0.426203    0.000000
     30          1           0        0.636890    1.087437   -0.880394
     31          1           0        0.636890    1.087437    0.880394
     32          6           0       -0.640961   -0.426203    0.000000
     33          1           0       -0.636890   -1.087437    0.880394
     34          1           0       -0.636890   -1.087437   -0.880394
     35          6           0       -1.933281    0.410354    0.000000
     36          1           0       -1.937352    1.071588   -0.880394
     37          1           0       -1.937352    1.071588    0.880394
     38          6           0       -3.215207   -0.442050    0.000000
     39          1           0       -3.211133   -1.103284    0.880393
     40          1           0       -3.211133   -1.103284   -0.880393
     41          6           0       -4.507544    0.394493    0.000000
     42          1           0       -4.511615    1.055728   -0.880392
     43          1           0       -4.511615    1.055728    0.880392
     44          6           0       -5.789488   -0.457901    0.000000
     45          1           0       -5.785409   -1.119137    0.880390
     46          1           0       -5.785409   -1.119137   -0.880391
     47          6           0       -7.081858    0.378627    0.000000
     48          1           0       -7.085920    1.039862   -0.880378
     49          1           0       -7.085920    1.039862    0.880378
     50          6           0       -8.363904   -0.473703    0.000000
     51          1           0       -8.359775   -1.134962    0.880399
     52          1           0       -8.359775   -1.134962   -0.880400
     53          6           0       -9.656380    0.362498    0.000000
     54          1           0       -9.661632    1.023895   -0.880385
     55          1           0       -9.661632    1.023894    0.880385
     56          6           0      -10.938939   -0.489579    0.000000
     57          1           0      -10.932953   -1.150369    0.879632
     58          1           0      -10.932953   -1.150369   -0.879632
     59          6           0      -12.224274    0.353559    0.000000
     60          1           0      -12.271547    1.000033   -0.885587
     61          1           0      -13.119293   -0.279590    0.000000
     62          1           0      -12.271547    1.000033    0.885587
 ---------------------------------------------------------------------
 Rotational constants (GHZ):           4.1762540           0.0319428           0.0318252

 **********************************************************************

            Population analysis using the SCF Density.

 **********************************************************************

 Orbital symmetries:
       Occupied  (A) (A) (A) (A) (A) (A) (A) (A) (A) (A) (A) (A)
                 (A) (A) (A) (A) (A) (A) (A) (A) (A) (A) (A) (A)
                 (A) (A) (A) (A) (A) (A) (A) (A) (A) (A) (A) (A)
                 (A) (A) (A) (A) (A) (A) (A) (A) (A) (A) (A) (A)
                 (A) (A) (A) (A) (A) (A) (A) (A) (A) (A) (A) (A)
                 (A) (A) (A) (A) (A) (A) (A) (A) (A) (A) (A) (A)
                 (A) (A) (A) (A) (A) (A) (A) (A) (A)
       Virtual   (A) (A) (A) (A) (A) (A) (A) (A) (A) (A) (A) (A)
                 (A) (A) (A) (A) (A) (A) (A) (A) (A) (A) (A) (A)
                 (A) (A) (A) (A) (A) (A) (A) (A) (A) (A) (A) (A)
                 (A) (A) (A) (A) (A) (A) (A) (A) (A) (A) (A) (A)
                 (A) (A) (A) (A) (A) (A) (A) (A) (A) (A) (A) (A)
                 (A) (A) (A) (A) (A) (A) (A) (A) (A) (A) (A) (A)
                 (A) (A) (A) (A) (A) (A) (A) (A) (A) (A) (A) (A)
                 (A) (A) (A) (A) (A) (A) (A) (A) (A) (A) (A) (A)
                 (A) (A) (A) (A) (A) (A) (A) (A) (A) (A) (A) (A)
                 (A) (A) (A) (A) (A) (A) (A) (A) (A) (A) (A) (A)
                 (A) (A) (A) (A) (A) (A) (A) (A) (A) (A) (A) (A)
                 (A) (A) (A) (A) (A) (A) (A) (A) (A) (A) (A) (A)
                 (A) (A) (A) (A) (A) (A) (A) (A) (A) (A) (A) (A)
                 (A) (A) (A) (A) (A) (A) (A) (A) (A) (A) (A) (A)
                 (A) (A) (A) (A) (A) (A) (A) (A) (A) (A) (A) (A)
                 (A) (A) (A)
 The electronic state is 1-A.
 Alpha  occ. eigenvalues --  -10.17186 -10.17186 -10.16957 -10.16957 -10.16951
 Alpha  occ. eigenvalues --  -10.16951 -10.16949 -10.16948 -10.16946 -10.16944
 Alpha  occ. eigenvalues --  -10.16941 -10.16938 -10.16935 -10.16932 -10.16932
 Alpha  occ. eigenvalues --  -10.16931 -10.16929 -10.16926 -10.16450 -10.16450
 Alpha  occ. eigenvalues --   -0.81191  -0.80756  -0.80028  -0.79017  -0.77728
 Alpha  occ. eigenvalues --   -0.76173  -0.74363  -0.72320  -0.70070  -0.67654
 Alpha  occ. eigenvalues --   -0.65135  -0.62615  -0.60271  -0.58382  -0.57700
 Alpha  occ. eigenvalues --   -0.57511  -0.57177  -0.57149  -0.56742  -0.56675
 Alpha  occ. eigenvalues --   -0.48493  -0.48085  -0.47412  -0.46490  -0.45341
 Alpha  occ. eigenvalues --   -0.43995  -0.43021  -0.42882  -0.42490  -0.42140
 Alpha  occ. eigenvalues --   -0.41996  -0.40875  -0.40705  -0.40278  -0.39211
 Alpha  occ. eigenvalues --   -0.39190  -0.37846  -0.37567  -0.37482  -0.36170
 Alpha  occ. eigenvalues --   -0.36019  -0.34808  -0.34808  -0.34641  -0.33672
 Alpha  occ. eigenvalues --   -0.33494  -0.32888  -0.32618  -0.32269  -0.32039
 Alpha  occ. eigenvalues --   -0.32020  -0.31835  -0.31685  -0.31675  -0.31577
 Alpha  occ. eigenvalues --   -0.31573  -0.31547  -0.31487  -0.31477  -0.29668
 Alpha  occ. eigenvalues --   -0.28095
 Alpha virt. eigenvalues --    0.08796   0.09015   0.09356   0.09784   0.10301
 Alpha virt. eigenvalues --    0.10850   0.10967   0.11417   0.11879   0.11900
 Alpha virt. eigenvalues --    0.12355   0.12463   0.13139   0.13499   0.13638
 Alpha virt. eigenvalues --    0.14515   0.15143   0.15202   0.16062   0.16900
 Alpha virt. eigenvalues --    0.16922   0.17238   0.17957   0.18303   0.18539
 Alpha virt. eigenvalues --    0.19419   0.19455   0.19750   0.19834   0.19961
 Alpha virt. eigenvalues --    0.19992   0.20120   0.20280   0.20366   0.20420
 Alpha virt. eigenvalues --    0.20580   0.20684   0.21539   0.21567   0.21613
 Alpha virt. eigenvalues --    0.21912   0.22038   0.22247   0.22359   0.22386
 Alpha virt. eigenvalues --    0.22521   0.23116   0.23419   0.24457   0.24896
 Alpha virt. eigenvalues --    0.25241   0.26253   0.26596   0.27488   0.28227
 Alpha virt. eigenvalues --    0.28320   0.29192   0.32028   0.32081   0.36441
 Alpha virt. eigenvalues --    0.36444   0.48764   0.50466   0.52505   0.52765
 Alpha virt. eigenvalues --    0.52979   0.54700   0.55589   0.55787   0.57573
 Alpha virt. eigenvalues --    0.57576   0.57907   0.59048   0.59141   0.59380
 Alpha virt. eigenvalues --    0.59487   0.59494   0.59703   0.59719   0.60255
 Alpha virt. eigenvalues --    0.60899   0.61960   0.63276   0.63485   0.64044
 Alpha virt. eigenvalues --    0.64435   0.66040   0.66892   0.67137   0.67549
 Alpha virt. eigenvalues --    0.67796   0.69611   0.70999   0.71080   0.71106
 Alpha virt. eigenvalues --    0.71925   0.72976   0.73126   0.74003   0.74825
 Alpha virt. eigenvalues --    0.75138   0.76950   0.77745   0.78265   0.80166
 Alpha virt. eigenvalues --    0.80883   0.80909   0.82222   0.82592   0.82765
 Alpha virt. eigenvalues --    0.83356   0.83362   0.83864   0.84605   0.86916
 Alpha virt. eigenvalues --    0.87491   0.87631   0.88462   0.89070   0.89148
 Alpha virt. eigenvalues --    0.89830   0.91571   0.92830   0.93231   0.93609
 Alpha virt. eigenvalues --    0.93788   0.93935   0.94990   0.95297   0.95771
 Alpha virt. eigenvalues --    0.96804   0.97821   0.97843   0.98289   0.99301
 Alpha virt. eigenvalues --    0.99754   0.99884   1.00013   1.00223   1.00241
 Alpha virt. eigenvalues --    1.00347   1.00841   1.01050   1.01586   1.01586
 Alpha virt. eigenvalues --    1.01659   1.01881   1.02471   1.02484   1.02593
 Alpha virt. eigenvalues --    1.03247   1.04457   1.04682   1.05352   1.07241
 Alpha virt. eigenvalues --    1.11467   1.11664   1.15860   1.16442   1.19068
 Alpha virt. eigenvalues --    1.19386   1.22013   1.27617   1.28931   1.32246
 Alpha virt. eigenvalues --    1.36087   1.39392   1.39948   1.42313   1.44869
 Alpha virt. eigenvalues --    1.46993   1.48588   1.49568   1.50169   1.50417
 Alpha virt. eigenvalues --    1.52760   1.57409   1.58389   1.68130   1.80866
 Alpha virt. eigenvalues --    1.93005   2.00839   2.03780
          Condensed to atoms (all electrons):
 Mulliken charges:
               1
     1  C   -0.405206
     2  H    0.130575
     3  H    0.130575
     4  H    0.129187
     5  C   -0.236556
     6  H    0.122339
     7  H    0.122339
     8  C   -0.230635
     9  H    0.118636
    10  H    0.118636
    11  C   -0.238133
    12  H    0.119042
    13  H    0.119042
    14  C   -0.238317
    15  H    0.119167
    16  H    0.119167
    17  C   -0.238157
    18  H    0.119103
    19  H    0.119103
    20  C   -0.238175
    21  H    0.119106
    22  H    0.119106
    23  C   -0.238174
    24  H    0.119095
    25  H    0.119095
    26  C   -0.238167
    27  H    0.119094
    28  H    0.119094
    29  C   -0.238166
    30  H    0.119091
    31  H    0.119091
    32  C   -0.238166
    33  H    0.119091
    34  H    0.119091
    35  C   -0.238167
    36  H    0.119094
    37  H    0.119094
    38  C   -0.238174
    39  H    0.119095
    40  H    0.119095
    41  C   -0.238175
    42  H    0.119106
    43  H    0.119106
    44  C   -0.238157
    45  H    0.119103
    46  H    0.119103
    47  C   -0.238317
    48  H    0.119167
    49  H    0.119167
    50  C   -0.238133
    51  H    0.119042
    52  H    0.119042
    53  C   -0.230635
    54  H    0.118636
    55  H    0.118636
    56  C   -0.236556
    57  H    0.122339
    58  H    0.122339
    59  C   -0.405206
    60  H    0.130575
    61  H    0.129187
    62  H    0.130575
 Sum of Mulliken charges =   0.00000
 Mulliken charges with hydrogens summed into heavy atoms:
               1
     1  C   -0.014869
     5  C    0.008123
     8  C    0.006637
    11  C   -0.000049
    14  C    0.000017
    17  C    0.000049
    20  C    0.000037
    23  C    0.000016
    26  C    0.000021
    29  C    0.000017
    32  C    0.000017
    35  C    0.000021
    38  C    0.000016
    41  C    0.000037
    44  C    0.000049
    47  C    0.000017
    50  C   -0.000049
    53  C    0.006637
    56  C    0.008123
    59  C   -0.014869
 Electronic spatial extent (au):  <R**2>=          33370.4830
 Charge=              0.0000 electrons
 Dipole moment (field-independent basis, Debye):
    X=              0.0000    Y=              0.0000    Z=              0.0000  Tot=              0.0000
 Quadrupole moment (field-independent basis, Debye-Ang):
   XX=           -137.3498   YY=           -136.3231   ZZ=           -133.0711
   XY=              0.6737   XZ=              0.0000   YZ=              0.0000
 Traceless Quadrupole moment (field-independent basis, Debye-Ang):
   XX=             -1.7685   YY=             -0.7418   ZZ=              2.5102
   XY=              0.6737   XZ=              0.0000   YZ=              0.0000
 Octapole moment (field-independent basis, Debye-Ang**2):
  XXX=              0.0000  YYY=              0.0000  ZZZ=              0.0000  XYY=              0.0000
  XXY=              0.0000  XXZ=              0.0000  XZZ=              0.0000  YZZ=              0.0000
  YYZ=              0.0000  XYZ=              0.0000
 Hexadecapole moment (field-independent basis, Debye-Ang**3):
 XXXX=         -46613.9148 YYYY=           -484.6550 ZZZZ=           -279.6787 XXXY=            170.2006
 XXXZ=              0.0002 YYYX=              1.1959 YYYZ=              0.0000 ZZZX=              0.0000
 ZZZY=              0.0000 XXYY=          -7789.6065 XXZZ=          -7605.8108 YYZZ=           -117.4157
 XXYZ=              0.0000 YYXZ=              0.0000 ZZXY=             -5.7953
 N-N= 1.353442578711D+03 E-N=-4.527492089158D+03  KE= 7.825632191276D+02
 1|1|UNPC-6424705A076343F|FOpt|RB3LYP|6-31G|C20H42|TKMELDRUM|14-Mar-202
 3|0||# opt b3lyp/6-31g geom=connectivity||Title Card Required||0,1|C,-
 9.7916736428,-4.2262718323,-0.1304771375|H,-9.4535703098,-5.2697385811
 ,-0.1664137304|H,-9.4532347063,-3.7359351639,-1.0521371581|H,-10.88798
 0495,-4.229569504,-0.1366030927|C,-9.2383673494,-3.509171791,1.1115315
 438|H,-9.6183678034,-2.4770673075,1.1396847827|H,-9.6187011538,-4.0005
 565983,2.0194521254|C,-7.6995420655,-3.4819972176,1.1591727124|H,-7.31
 82576061,-2.9899925293,0.2508196953|H,-7.3185912419,-4.5147863973,1.13
 1340412|C,-7.1363891212,-2.7656370053,2.3999039411|H,-7.5185057809,-3.
 2580371251,3.3076001585|H,-7.5181721224,-1.7332187553,2.4270652828|C,-
 5.5978332276,-2.738714833,2.4471079606|H,-5.2156762258,-2.2463041421,1
 .5394729346|H,-5.216009878,-3.7710853703,2.4199864052|C,-5.0349580525,
 -2.0222525383,3.6880157723|H,-5.417100992,-2.5146686045,4.595666295|H,
 -5.4167673217,-0.9898658782,3.7151403988|C,-3.4964469181,-1.9953865369
 ,3.7351225133|H,-3.1142975962,-1.502966406,2.8274764273|H,-3.114631274
 6,-3.0277713957,3.7080036667|C,-2.9336070561,-1.2789276996,4.976024293
 4|H,-3.3157541709,-1.7713479263,5.8836727634|H,-3.3154204726,-0.246540
 7247,5.0031442365|C,-1.3951056083,-1.2520704145,5.0231159884|H,-1.0129
 556375,-0.7596485064,4.1154692948|H,-1.0132893387,-2.2844566943,4.9959
 984274|C,-0.8322868213,-0.5356109196,6.2640188428|H,-1.2144364027,-1.0
 280328747,7.1716660161|H,-1.2141026832,0.4967758062,6.2911365829|C,0.7
 062120708,-0.5087556557,6.3111070523|H,1.0883616545,-0.0163337128,5.40
 34598763|H,1.0880279326,-1.5411423846,6.2839893279|C,1.2690308568,0.20
 77038574,7.5520098968|H,0.8868808603,-0.2847180118,8.4596566006|H,0.88
 72146122,1.2400901473,7.5791274183|C,2.8075323048,0.2345611097,7.59910
 16125|H,3.1896794507,0.7269812617,6.6914531195|H,3.1893456918,-0.79782
 58823,7.5719817463|C,3.3703721651,0.9510200138,8.8400033547|H,2.988222
 7847,0.4585999791,9.7476494703|H,2.9885565783,1.9834048943,8.867122102
 1|C,4.9088832993,0.9778859247,8.8871101506|H,5.2910263051,1.4703018632
 ,7.9794595867|H,5.2906925036,-0.054500763,8.859985656|C,5.4717584722,1
 .69434832,10.1280179051|H,5.0896013845,1.2019377843,11.0356529719|H,5.
 0899352078,2.7267188994,10.1551393053|C,7.0103143654,1.7212703723,10.1
 752219962|H,7.3924311148,2.2136703187,9.2675257226|H,7.3920972779,0.68
 88520848,10.1480608334|C,7.5734673077,2.4376307308,11.4159531418|H,7.1
 921827423,1.9456262307,12.3243062165|H,7.1925165893,3.4704199543,11.44
 37852498|C,9.1122925912,2.4648051541,11.4635944001|H,9.4926265036,2.95
 6189764,10.5556737566|H,9.4922929382,1.4327006259,11.4354413636|C,9.66
 55988823,3.1819053515,12.7056029925|H,9.3271598342,2.6915688795,13.627
 2630772|H,10.7619057345,3.1852029045,12.7117290183|H,9.3274956597,4.22
 53721423,12.7415393824||Version=EM64W-G16RevB.01|State=1-A|HF=-787.285
 954|RMSD=3.913e-009|RMSF=2.644e-005|Dipole=0.,0.,0.|Quadrupole=-0.5812
 383,1.0783004,-0.4970621,-0.2607627,-0.4524872,-1.3646677|PG=C01 [X(C2
 0H42)]||@


 DO NOT LET SELFISH MEN OR GREEDY INTERESTS SKIN YOUR COUNTRY OF ITS
 BEAUTY, ITS RICHES, OR ITS ROMANCE. -- THEODORE ROOSEVELT
 Job cpu time:       0 days  0 hours 38 minutes 23.0 seconds.
 Elapsed time:       0 days  0 hours 38 minutes 17.7 seconds.
 File lengths (MBytes):  RWF=     57 Int=      0 D2E=      0 Chk=      9 Scr=      1
 Normal termination of Gaussian 16 at Tue Mar 14 12:38:08 2023.
