 Entering Link 1 = C:\Gaussian\l1.exe PID=      8632.
  
 Copyright (c) 1988-2017, Gaussian, Inc.  All Rights Reserved.
  
 This is part of the Gaussian(R) 16 program.  It is based on
 the Gaussian(R) 09 system (copyright 2009, Gaussian, Inc.),
 the Gaussian(R) 03 system (copyright 2003, Gaussian, Inc.),
 the Gaussian(R) 98 system (copyright 1998, Gaussian, Inc.),
 the Gaussian(R) 94 system (copyright 1995, Gaussian, Inc.),
 the Gaussian 92(TM) system (copyright 1992, Gaussian, Inc.),
 the Gaussian 90(TM) system (copyright 1990, Gaussian, Inc.),
 the Gaussian 88(TM) system (copyright 1988, Gaussian, Inc.),
 the Gaussian 86(TM) system (copyright 1986, Carnegie Mellon
 University), and the Gaussian 82(TM) system (copyright 1983,
 Carnegie Mellon University). Gaussian is a federally registered
 trademark of Gaussian, Inc.
  
 This software contains proprietary and confidential information,
 including trade secrets, belonging to Gaussian, Inc.
  
 This software is provided under written license and may be
 used, copied, transmitted, or stored only in accord with that
 written license.
  
 The following legend is applicable only to US Government
 contracts under FAR:
  
                    RESTRICTED RIGHTS LEGEND
  
 Use, reproduction and disclosure by the US Government is
 subject to restrictions as set forth in subparagraphs (a)
 and (c) of the Commercial Computer Software - Restricted
 Rights clause in FAR 52.227-19.
  
 Gaussian, Inc.
 340 Quinnipiac St., Bldg. 40, Wallingford CT 06492
  
  
 ---------------------------------------------------------------
 Warning -- This program may not be used in any manner that
 competes with the business of Gaussian, Inc. or will provide
 assistance to any competitor of Gaussian, Inc.  The licensee
 of this program is prohibited from giving any competitor of
 Gaussian, Inc. access to this program.  By using this program,
 the user acknowledges that Gaussian, Inc. is engaged in the
 business of creating and licensing software in the field of
 computational chemistry and represents and warrants to the
 licensee that it is not a competitor of Gaussian, Inc. and that
 it will not use this program in any manner prohibited above.
 ---------------------------------------------------------------
  

 Cite this work as:
 Gaussian 16, Revision B.01,
 M. J. Frisch, G. W. Trucks, H. B. Schlegel, G. E. Scuseria, 
 M. A. Robb, J. R. Cheeseman, G. Scalmani, V. Barone, 
 G. A. Petersson, H. Nakatsuji, X. Li, M. Caricato, A. V. Marenich, 
 J. Bloino, B. G. Janesko, R. Gomperts, B. Mennucci, H. P. Hratchian, 
 J. V. Ortiz, A. F. Izmaylov, J. L. Sonnenberg, D. Williams-Young, 
 F. Ding, F. Lipparini, F. Egidi, J. Goings, B. Peng, A. Petrone, 
 T. Henderson, D. Ranasinghe, V. G. Zakrzewski, J. Gao, N. Rega, 
 G. Zheng, W. Liang, M. Hada, M. Ehara, K. Toyota, R. Fukuda, 
 J. Hasegawa, M. Ishida, T. Nakajima, Y. Honda, O. Kitao, H. Nakai, 
 T. Vreven, K. Throssell, J. A. Montgomery, Jr., J. E. Peralta, 
 F. Ogliaro, M. J. Bearpark, J. J. Heyd, E. N. Brothers, K. N. Kudin, 
 V. N. Staroverov, T. A. Keith, R. Kobayashi, J. Normand, 
 K. Raghavachari, A. P. Rendell, J. C. Burant, S. S. Iyengar, 
 J. Tomasi, M. Cossi, J. M. Millam, M. Klene, C. Adamo, R. Cammi, 
 J. W. Ochterski, R. L. Martin, K. Morokuma, O. Farkas, 
 J. B. Foresman, and D. J. Fox, Gaussian, Inc., Wallingford CT, 2016.
 
 ******************************************
 Gaussian 16:  EM64W-G16RevB.01 16-Dec-2017
                14-Mar-2023 
 ******************************************
 %chk=C:\Users\tkmeldrum\Documents\MDworking\C16H34.chk
 -----------------------------------
 # opt b3lyp/6-31g geom=connectivity
 -----------------------------------
 1/18=20,19=15,26=3,38=1,57=2/1,3;
 2/9=110,12=2,17=6,18=5,40=1/2;
 3/5=1,6=6,11=2,25=1,30=1,71=1,74=-5/1,2,3;
 4//1;
 5/5=2,38=5/2;
 6/7=2,8=2,9=2,10=2,28=1/1;
 7//1,2,3,16;
 1/18=20,19=15,26=3/3(2);
 2/9=110/2;
 99//99;
 2/9=110/2;
 3/5=1,6=6,11=2,25=1,30=1,71=1,74=-5/1,2,3;
 4/5=5,16=3,69=1/1;
 5/5=2,38=5/2;
 7//1,2,3,16;
 1/18=20,19=15,26=3/3(-5);
 2/9=110/2;
 6/7=2,8=2,9=2,10=2,19=2,28=1/1;
 99/9=1/99;
 -------------------
 Title Card Required
 -------------------
 Symbolic Z-matrix:
 Charge =  0 Multiplicity = 1
 C                    -9.30818  -3.80527   0.00014 
 H                    -8.95313  -4.81464   0.0014 
 H                    -8.9499   -3.30225  -0.87366 
 H                    -10.37818  -3.80355  -0.00085 
 C                    -8.79483  -3.07895   1.25733 
 H                    -9.14988  -2.06958   1.25607 
 H                    -9.15311  -3.58197   2.13113 
 C                    -7.25484  -3.08142   1.25875 
 H                    -6.89656  -2.57841   0.38496 
 H                    -6.89979  -4.0908    1.26002 
 C                    -6.74149  -2.35511   2.51595 
 H                    -7.09977  -2.85812   3.38974 
 H                    -7.09654  -1.34573   2.51468 
 C                    -5.2015   -2.35758   2.51736 
 H                    -4.84322  -1.85457   1.64357 
 H                    -4.84645  -3.36695   2.51863 
 C                    -4.68815  -1.63126   3.77456 
 H                    -5.04643  -2.13427   4.64835 
 H                    -5.0432   -0.62189   3.77329 
 C                    -3.14816  -1.63373   3.77597 
 H                    -2.78988  -1.13072   2.90218 
 H                    -2.79311  -2.6431    3.77725 
 C                    -2.63481  -0.90741   5.03317 
 H                    -2.99309  -1.41042   5.90696 
 H                    -2.98986   0.10197   5.03189 
 C                    -1.09482  -0.90987   5.03458 
 H                    -0.73654  -0.40686   4.16078 
 H                    -0.73976  -1.91924   5.03585 
 C                    -0.58147  -0.18354   6.29177 
 H                    -0.93974  -0.68655   7.16557 
 H                    -0.93653   0.82583   6.29049 
 C                     0.95853  -0.186     6.29318 
 H                     1.31679   0.31701   5.41938 
 H                     1.31358  -1.19537   6.29446 
 C                     1.47187   0.54033   7.55037 
 H                     1.1136    0.03732   8.42417 
 H                     1.11681   1.5497    7.54909 
 C                     3.01187   0.53788   7.55177 
 H                     3.37013   1.04089   6.67797 
 H                     3.36693  -0.47149   7.55305 
 C                     3.52521   1.26421   8.80896 
 H                     3.16694   0.76121   9.68276 
 H                     3.17015   2.27359   8.80768 
 C                     5.06521   1.26176   8.81036 
 H                     5.42347   1.76477   7.93656 
 H                     5.42027   0.25239   8.81164 
 C                     5.57855   1.9881    10.06755 
 H                     5.22028   1.48509   10.94135 
 H                     6.64855   1.98639   10.06853 
 H                     5.22349   2.99747   10.06627 
 

 GradGradGradGradGradGradGradGradGradGradGradGradGradGradGradGradGradGrad
 Berny optimization.
 Initialization pass.
                           ----------------------------
                           !    Initial Parameters    !
                           ! (Angstroms and Degrees)  !
 --------------------------                            --------------------------
 ! Name  Definition              Value          Derivative Info.                !
 --------------------------------------------------------------------------------
 ! R1    R(1,2)                  1.07           estimate D2E/DX2                !
 ! R2    R(1,3)                  1.07           estimate D2E/DX2                !
 ! R3    R(1,4)                  1.07           estimate D2E/DX2                !
 ! R4    R(1,5)                  1.54           estimate D2E/DX2                !
 ! R5    R(5,6)                  1.07           estimate D2E/DX2                !
 ! R6    R(5,7)                  1.07           estimate D2E/DX2                !
 ! R7    R(5,8)                  1.54           estimate D2E/DX2                !
 ! R8    R(8,9)                  1.07           estimate D2E/DX2                !
 ! R9    R(8,10)                 1.07           estimate D2E/DX2                !
 ! R10   R(8,11)                 1.54           estimate D2E/DX2                !
 ! R11   R(11,12)                1.07           estimate D2E/DX2                !
 ! R12   R(11,13)                1.07           estimate D2E/DX2                !
 ! R13   R(11,14)                1.54           estimate D2E/DX2                !
 ! R14   R(14,15)                1.07           estimate D2E/DX2                !
 ! R15   R(14,16)                1.07           estimate D2E/DX2                !
 ! R16   R(14,17)                1.54           estimate D2E/DX2                !
 ! R17   R(17,18)                1.07           estimate D2E/DX2                !
 ! R18   R(17,19)                1.07           estimate D2E/DX2                !
 ! R19   R(17,20)                1.54           estimate D2E/DX2                !
 ! R20   R(20,21)                1.07           estimate D2E/DX2                !
 ! R21   R(20,22)                1.07           estimate D2E/DX2                !
 ! R22   R(20,23)                1.54           estimate D2E/DX2                !
 ! R23   R(23,24)                1.07           estimate D2E/DX2                !
 ! R24   R(23,25)                1.07           estimate D2E/DX2                !
 ! R25   R(23,26)                1.54           estimate D2E/DX2                !
 ! R26   R(26,27)                1.07           estimate D2E/DX2                !
 ! R27   R(26,28)                1.07           estimate D2E/DX2                !
 ! R28   R(26,29)                1.54           estimate D2E/DX2                !
 ! R29   R(29,30)                1.07           estimate D2E/DX2                !
 ! R30   R(29,31)                1.07           estimate D2E/DX2                !
 ! R31   R(29,32)                1.54           estimate D2E/DX2                !
 ! R32   R(32,33)                1.07           estimate D2E/DX2                !
 ! R33   R(32,34)                1.07           estimate D2E/DX2                !
 ! R34   R(32,35)                1.54           estimate D2E/DX2                !
 ! R35   R(35,36)                1.07           estimate D2E/DX2                !
 ! R36   R(35,37)                1.07           estimate D2E/DX2                !
 ! R37   R(35,38)                1.54           estimate D2E/DX2                !
 ! R38   R(38,39)                1.07           estimate D2E/DX2                !
 ! R39   R(38,40)                1.07           estimate D2E/DX2                !
 ! R40   R(38,41)                1.54           estimate D2E/DX2                !
 ! R41   R(41,42)                1.07           estimate D2E/DX2                !
 ! R42   R(41,43)                1.07           estimate D2E/DX2                !
 ! R43   R(41,44)                1.54           estimate D2E/DX2                !
 ! R44   R(44,45)                1.07           estimate D2E/DX2                !
 ! R45   R(44,46)                1.07           estimate D2E/DX2                !
 ! R46   R(44,47)                1.54           estimate D2E/DX2                !
 ! R47   R(47,48)                1.07           estimate D2E/DX2                !
 ! R48   R(47,49)                1.07           estimate D2E/DX2                !
 ! R49   R(47,50)                1.07           estimate D2E/DX2                !
 ! A1    A(2,1,3)              109.4712         estimate D2E/DX2                !
 ! A2    A(2,1,4)              109.4712         estimate D2E/DX2                !
 ! A3    A(2,1,5)              109.4712         estimate D2E/DX2                !
 ! A4    A(3,1,4)              109.4712         estimate D2E/DX2                !
 ! A5    A(3,1,5)              109.4712         estimate D2E/DX2                !
 ! A6    A(4,1,5)              109.4712         estimate D2E/DX2                !
 ! A7    A(1,5,6)              109.4712         estimate D2E/DX2                !
 ! A8    A(1,5,7)              109.4712         estimate D2E/DX2                !
 ! A9    A(1,5,8)              109.4712         estimate D2E/DX2                !
 ! A10   A(6,5,7)              109.4712         estimate D2E/DX2                !
 ! A11   A(6,5,8)              109.4712         estimate D2E/DX2                !
 ! A12   A(7,5,8)              109.4712         estimate D2E/DX2                !
 ! A13   A(5,8,9)              109.4712         estimate D2E/DX2                !
 ! A14   A(5,8,10)             109.4712         estimate D2E/DX2                !
 ! A15   A(5,8,11)             109.4712         estimate D2E/DX2                !
 ! A16   A(9,8,10)             109.4712         estimate D2E/DX2                !
 ! A17   A(9,8,11)             109.4712         estimate D2E/DX2                !
 ! A18   A(10,8,11)            109.4712         estimate D2E/DX2                !
 ! A19   A(8,11,12)            109.4712         estimate D2E/DX2                !
 ! A20   A(8,11,13)            109.4712         estimate D2E/DX2                !
 ! A21   A(8,11,14)            109.4712         estimate D2E/DX2                !
 ! A22   A(12,11,13)           109.4712         estimate D2E/DX2                !
 ! A23   A(12,11,14)           109.4712         estimate D2E/DX2                !
 ! A24   A(13,11,14)           109.4712         estimate D2E/DX2                !
 ! A25   A(11,14,15)           109.4712         estimate D2E/DX2                !
 ! A26   A(11,14,16)           109.4712         estimate D2E/DX2                !
 ! A27   A(11,14,17)           109.4712         estimate D2E/DX2                !
 ! A28   A(15,14,16)           109.4712         estimate D2E/DX2                !
 ! A29   A(15,14,17)           109.4712         estimate D2E/DX2                !
 ! A30   A(16,14,17)           109.4712         estimate D2E/DX2                !
 ! A31   A(14,17,18)           109.4712         estimate D2E/DX2                !
 ! A32   A(14,17,19)           109.4712         estimate D2E/DX2                !
 ! A33   A(14,17,20)           109.4712         estimate D2E/DX2                !
 ! A34   A(18,17,19)           109.4712         estimate D2E/DX2                !
 ! A35   A(18,17,20)           109.4712         estimate D2E/DX2                !
 ! A36   A(19,17,20)           109.4712         estimate D2E/DX2                !
 ! A37   A(17,20,21)           109.4712         estimate D2E/DX2                !
 ! A38   A(17,20,22)           109.4712         estimate D2E/DX2                !
 ! A39   A(17,20,23)           109.4712         estimate D2E/DX2                !
 ! A40   A(21,20,22)           109.4712         estimate D2E/DX2                !
 ! A41   A(21,20,23)           109.4712         estimate D2E/DX2                !
 ! A42   A(22,20,23)           109.4712         estimate D2E/DX2                !
 ! A43   A(20,23,24)           109.4712         estimate D2E/DX2                !
 ! A44   A(20,23,25)           109.4712         estimate D2E/DX2                !
 ! A45   A(20,23,26)           109.4712         estimate D2E/DX2                !
 ! A46   A(24,23,25)           109.4712         estimate D2E/DX2                !
 ! A47   A(24,23,26)           109.4712         estimate D2E/DX2                !
 ! A48   A(25,23,26)           109.4712         estimate D2E/DX2                !
 ! A49   A(23,26,27)           109.4712         estimate D2E/DX2                !
 ! A50   A(23,26,28)           109.4712         estimate D2E/DX2                !
 ! A51   A(23,26,29)           109.4712         estimate D2E/DX2                !
 ! A52   A(27,26,28)           109.4712         estimate D2E/DX2                !
 ! A53   A(27,26,29)           109.4712         estimate D2E/DX2                !
 ! A54   A(28,26,29)           109.4712         estimate D2E/DX2                !
 ! A55   A(26,29,30)           109.4712         estimate D2E/DX2                !
 ! A56   A(26,29,31)           109.4712         estimate D2E/DX2                !
 ! A57   A(26,29,32)           109.4712         estimate D2E/DX2                !
 ! A58   A(30,29,31)           109.4712         estimate D2E/DX2                !
 ! A59   A(30,29,32)           109.4712         estimate D2E/DX2                !
 ! A60   A(31,29,32)           109.4712         estimate D2E/DX2                !
 ! A61   A(29,32,33)           109.4712         estimate D2E/DX2                !
 ! A62   A(29,32,34)           109.4712         estimate D2E/DX2                !
 ! A63   A(29,32,35)           109.4712         estimate D2E/DX2                !
 ! A64   A(33,32,34)           109.4712         estimate D2E/DX2                !
 ! A65   A(33,32,35)           109.4712         estimate D2E/DX2                !
 ! A66   A(34,32,35)           109.4712         estimate D2E/DX2                !
 ! A67   A(32,35,36)           109.4712         estimate D2E/DX2                !
 ! A68   A(32,35,37)           109.4712         estimate D2E/DX2                !
 ! A69   A(32,35,38)           109.4712         estimate D2E/DX2                !
 ! A70   A(36,35,37)           109.4712         estimate D2E/DX2                !
 ! A71   A(36,35,38)           109.4712         estimate D2E/DX2                !
 ! A72   A(37,35,38)           109.4712         estimate D2E/DX2                !
 ! A73   A(35,38,39)           109.4712         estimate D2E/DX2                !
 ! A74   A(35,38,40)           109.4712         estimate D2E/DX2                !
 ! A75   A(35,38,41)           109.4712         estimate D2E/DX2                !
 ! A76   A(39,38,40)           109.4712         estimate D2E/DX2                !
 ! A77   A(39,38,41)           109.4712         estimate D2E/DX2                !
 ! A78   A(40,38,41)           109.4712         estimate D2E/DX2                !
 ! A79   A(38,41,42)           109.4712         estimate D2E/DX2                !
 ! A80   A(38,41,43)           109.4712         estimate D2E/DX2                !
 ! A81   A(38,41,44)           109.4712         estimate D2E/DX2                !
 ! A82   A(42,41,43)           109.4712         estimate D2E/DX2                !
 ! A83   A(42,41,44)           109.4712         estimate D2E/DX2                !
 ! A84   A(43,41,44)           109.4712         estimate D2E/DX2                !
 ! A85   A(41,44,45)           109.4712         estimate D2E/DX2                !
 ! A86   A(41,44,46)           109.4712         estimate D2E/DX2                !
 ! A87   A(41,44,47)           109.4712         estimate D2E/DX2                !
 ! A88   A(45,44,46)           109.4712         estimate D2E/DX2                !
 ! A89   A(45,44,47)           109.4712         estimate D2E/DX2                !
 ! A90   A(46,44,47)           109.4712         estimate D2E/DX2                !
 ! A91   A(44,47,48)           109.4712         estimate D2E/DX2                !
 ! A92   A(44,47,49)           109.4712         estimate D2E/DX2                !
 ! A93   A(44,47,50)           109.4712         estimate D2E/DX2                !
 ! A94   A(48,47,49)           109.4712         estimate D2E/DX2                !
 ! A95   A(48,47,50)           109.4712         estimate D2E/DX2                !
 ! A96   A(49,47,50)           109.4712         estimate D2E/DX2                !
 ! D1    D(2,1,5,6)            180.0            estimate D2E/DX2                !
 ! D2    D(2,1,5,7)            -60.0            estimate D2E/DX2                !
 ! D3    D(2,1,5,8)             60.0            estimate D2E/DX2                !
 ! D4    D(3,1,5,6)             60.0            estimate D2E/DX2                !
 ! D5    D(3,1,5,7)            180.0            estimate D2E/DX2                !
 ! D6    D(3,1,5,8)            -60.0            estimate D2E/DX2                !
 ! D7    D(4,1,5,6)            -60.0            estimate D2E/DX2                !
 ! D8    D(4,1,5,7)             60.0            estimate D2E/DX2                !
 ! D9    D(4,1,5,8)            180.0            estimate D2E/DX2                !
 ! D10   D(1,5,8,9)             60.0            estimate D2E/DX2                !
 ! D11   D(1,5,8,10)           -60.0            estimate D2E/DX2                !
 ! D12   D(1,5,8,11)           180.0            estimate D2E/DX2                !
 ! D13   D(6,5,8,9)            -60.0            estimate D2E/DX2                !
 ! D14   D(6,5,8,10)           180.0            estimate D2E/DX2                !
 ! D15   D(6,5,8,11)            60.0            estimate D2E/DX2                !
 ! D16   D(7,5,8,9)            180.0            estimate D2E/DX2                !
 ! D17   D(7,5,8,10)            60.0            estimate D2E/DX2                !
 ! D18   D(7,5,8,11)           -60.0            estimate D2E/DX2                !
 ! D19   D(5,8,11,12)           60.0            estimate D2E/DX2                !
 ! D20   D(5,8,11,13)          -60.0            estimate D2E/DX2                !
 ! D21   D(5,8,11,14)          180.0            estimate D2E/DX2                !
 ! D22   D(9,8,11,12)          180.0            estimate D2E/DX2                !
 ! D23   D(9,8,11,13)           60.0            estimate D2E/DX2                !
 ! D24   D(9,8,11,14)          -60.0            estimate D2E/DX2                !
 ! D25   D(10,8,11,12)         -60.0            estimate D2E/DX2                !
 ! D26   D(10,8,11,13)         180.0            estimate D2E/DX2                !
 ! D27   D(10,8,11,14)          60.0            estimate D2E/DX2                !
 ! D28   D(8,11,14,15)          59.9999         estimate D2E/DX2                !
 ! D29   D(8,11,14,16)         -60.0001         estimate D2E/DX2                !
 ! D30   D(8,11,14,17)         179.9999         estimate D2E/DX2                !
 ! D31   D(12,11,14,15)        179.9999         estimate D2E/DX2                !
 ! D32   D(12,11,14,16)         59.9999         estimate D2E/DX2                !
 ! D33   D(12,11,14,17)        -60.0001         estimate D2E/DX2                !
 ! D34   D(13,11,14,15)        -60.0001         estimate D2E/DX2                !
 ! D35   D(13,11,14,16)        179.9999         estimate D2E/DX2                !
 ! D36   D(13,11,14,17)         59.9999         estimate D2E/DX2                !
 ! D37   D(11,14,17,18)         60.0001         estimate D2E/DX2                !
 ! D38   D(11,14,17,19)        -59.9999         estimate D2E/DX2                !
 ! D39   D(11,14,17,20)       -179.9999         estimate D2E/DX2                !
 ! D40   D(15,14,17,18)       -179.9999         estimate D2E/DX2                !
 ! D41   D(15,14,17,19)         60.0001         estimate D2E/DX2                !
 ! D42   D(15,14,17,20)        -59.9999         estimate D2E/DX2                !
 ! D43   D(16,14,17,18)        -59.9999         estimate D2E/DX2                !
 ! D44   D(16,14,17,19)       -179.9999         estimate D2E/DX2                !
 ! D45   D(16,14,17,20)         60.0001         estimate D2E/DX2                !
 ! D46   D(14,17,20,21)         59.9998         estimate D2E/DX2                !
 ! D47   D(14,17,20,22)        -60.0002         estimate D2E/DX2                !
 ! D48   D(14,17,20,23)        179.9998         estimate D2E/DX2                !
 ! D49   D(18,17,20,21)        179.9999         estimate D2E/DX2                !
 ! D50   D(18,17,20,22)         59.9999         estimate D2E/DX2                !
 ! D51   D(18,17,20,23)        -60.0002         estimate D2E/DX2                !
 ! D52   D(19,17,20,21)        -60.0001         estimate D2E/DX2                !
 ! D53   D(19,17,20,22)        179.9999         estimate D2E/DX2                !
 ! D54   D(19,17,20,23)         59.9998         estimate D2E/DX2                !
 ! D55   D(17,20,23,24)         60.0001         estimate D2E/DX2                !
 ! D56   D(17,20,23,25)        -59.9999         estimate D2E/DX2                !
 ! D57   D(17,20,23,26)       -179.9998         estimate D2E/DX2                !
 ! D58   D(21,20,23,24)       -179.9999         estimate D2E/DX2                !
 ! D59   D(21,20,23,25)         60.0001         estimate D2E/DX2                !
 ! D60   D(21,20,23,26)        -59.9999         estimate D2E/DX2                !
 ! D61   D(22,20,23,24)        -59.9999         estimate D2E/DX2                !
 ! D62   D(22,20,23,25)       -179.9999         estimate D2E/DX2                !
 ! D63   D(22,20,23,26)         60.0001         estimate D2E/DX2                !
 ! D64   D(20,23,26,27)         59.9998         estimate D2E/DX2                !
 ! D65   D(20,23,26,28)        -60.0002         estimate D2E/DX2                !
 ! D66   D(20,23,26,29)        179.9998         estimate D2E/DX2                !
 ! D67   D(24,23,26,27)        179.9999         estimate D2E/DX2                !
 ! D68   D(24,23,26,28)         59.9999         estimate D2E/DX2                !
 ! D69   D(24,23,26,29)        -60.0002         estimate D2E/DX2                !
 ! D70   D(25,23,26,27)        -60.0001         estimate D2E/DX2                !
 ! D71   D(25,23,26,28)        179.9999         estimate D2E/DX2                !
 ! D72   D(25,23,26,29)         59.9998         estimate D2E/DX2                !
 ! D73   D(23,26,29,30)         60.0002         estimate D2E/DX2                !
 ! D74   D(23,26,29,31)        -59.9998         estimate D2E/DX2                !
 ! D75   D(23,26,29,32)       -179.9998         estimate D2E/DX2                !
 ! D76   D(27,26,29,30)       -179.9999         estimate D2E/DX2                !
 ! D77   D(27,26,29,31)         60.0001         estimate D2E/DX2                !
 ! D78   D(27,26,29,32)        -59.9998         estimate D2E/DX2                !
 ! D79   D(28,26,29,30)        -59.9999         estimate D2E/DX2                !
 ! D80   D(28,26,29,31)       -179.9999         estimate D2E/DX2                !
 ! D81   D(28,26,29,32)         60.0002         estimate D2E/DX2                !
 ! D82   D(26,29,32,33)         59.9998         estimate D2E/DX2                !
 ! D83   D(26,29,32,34)        -60.0002         estimate D2E/DX2                !
 ! D84   D(26,29,32,35)        179.9998         estimate D2E/DX2                !
 ! D85   D(30,29,32,33)        179.9999         estimate D2E/DX2                !
 ! D86   D(30,29,32,34)         59.9999         estimate D2E/DX2                !
 ! D87   D(30,29,32,35)        -60.0002         estimate D2E/DX2                !
 ! D88   D(31,29,32,33)        -60.0001         estimate D2E/DX2                !
 ! D89   D(31,29,32,34)        179.9999         estimate D2E/DX2                !
 ! D90   D(31,29,32,35)         59.9998         estimate D2E/DX2                !
 ! D91   D(29,32,35,36)         60.0002         estimate D2E/DX2                !
 ! D92   D(29,32,35,37)        -59.9998         estimate D2E/DX2                !
 ! D93   D(29,32,35,38)       -179.9998         estimate D2E/DX2                !
 ! D94   D(33,32,35,36)       -179.9999         estimate D2E/DX2                !
 ! D95   D(33,32,35,37)         60.0002         estimate D2E/DX2                !
 ! D96   D(33,32,35,38)        -59.9998         estimate D2E/DX2                !
 ! D97   D(34,32,35,36)        -59.9999         estimate D2E/DX2                !
 ! D98   D(34,32,35,37)       -179.9999         estimate D2E/DX2                !
 ! D99   D(34,32,35,38)         60.0002         estimate D2E/DX2                !
 ! D100  D(32,35,38,39)         59.9999         estimate D2E/DX2                !
 ! D101  D(32,35,38,40)        -60.0001         estimate D2E/DX2                !
 ! D102  D(32,35,38,41)        179.9998         estimate D2E/DX2                !
 ! D103  D(36,35,38,39)        179.9999         estimate D2E/DX2                !
 ! D104  D(36,35,38,40)         59.9999         estimate D2E/DX2                !
 ! D105  D(36,35,38,41)        -60.0001         estimate D2E/DX2                !
 ! D106  D(37,35,38,39)        -60.0001         estimate D2E/DX2                !
 ! D107  D(37,35,38,40)        179.9999         estimate D2E/DX2                !
 ! D108  D(37,35,38,41)         59.9999         estimate D2E/DX2                !
 ! D109  D(35,38,41,42)         60.0001         estimate D2E/DX2                !
 ! D110  D(35,38,41,43)        -59.9999         estimate D2E/DX2                !
 ! D111  D(35,38,41,44)       -179.9999         estimate D2E/DX2                !
 ! D112  D(39,38,41,42)       -180.0            estimate D2E/DX2                !
 ! D113  D(39,38,41,43)         60.0            estimate D2E/DX2                !
 ! D114  D(39,38,41,44)        -60.0            estimate D2E/DX2                !
 ! D115  D(40,38,41,42)        -60.0            estimate D2E/DX2                !
 ! D116  D(40,38,41,43)       -180.0            estimate D2E/DX2                !
 ! D117  D(40,38,41,44)         60.0            estimate D2E/DX2                !
 ! D118  D(38,41,44,45)         60.0            estimate D2E/DX2                !
 ! D119  D(38,41,44,46)        -60.0            estimate D2E/DX2                !
 ! D120  D(38,41,44,47)        180.0            estimate D2E/DX2                !
 ! D121  D(42,41,44,45)       -180.0            estimate D2E/DX2                !
 ! D122  D(42,41,44,46)         60.0            estimate D2E/DX2                !
 ! D123  D(42,41,44,47)        -60.0            estimate D2E/DX2                !
 ! D124  D(43,41,44,45)        -60.0            estimate D2E/DX2                !
 ! D125  D(43,41,44,46)        180.0            estimate D2E/DX2                !
 ! D126  D(43,41,44,47)         60.0            estimate D2E/DX2                !
 ! D127  D(41,44,47,48)         60.0            estimate D2E/DX2                !
 ! D128  D(41,44,47,49)        180.0            estimate D2E/DX2                !
 ! D129  D(41,44,47,50)        -60.0            estimate D2E/DX2                !
 ! D130  D(45,44,47,48)        180.0            estimate D2E/DX2                !
 ! D131  D(45,44,47,49)        -60.0            estimate D2E/DX2                !
 ! D132  D(45,44,47,50)         60.0            estimate D2E/DX2                !
 ! D133  D(46,44,47,48)        -60.0            estimate D2E/DX2                !
 ! D134  D(46,44,47,49)         60.0            estimate D2E/DX2                !
 ! D135  D(46,44,47,50)        180.0            estimate D2E/DX2                !
 --------------------------------------------------------------------------------
 Trust Radius=3.00D-01 FncErr=1.00D-07 GrdErr=1.00D-06 EigMax=2.50D+02 EigMin=1.00D-04
 Number of steps in this run=    290 maximum allowed number of steps=    300.
 GradGradGradGradGradGradGradGradGradGradGradGradGradGradGradGradGradGrad

                          Input orientation:                          
 ---------------------------------------------------------------------
 Center     Atomic      Atomic             Coordinates (Angstroms)
 Number     Number       Type             X           Y           Z
 ---------------------------------------------------------------------
      1          6           0       -9.308177   -3.805268    0.000136
      2          1           0       -8.953129   -4.814644    0.001405
      3          1           0       -8.949901   -3.302254   -0.873657
      4          1           0      -10.378176   -3.803553   -0.000847
      5          6           0       -8.794834   -3.078955    1.257334
      6          1           0       -9.149882   -2.069579    1.256065
      7          1           0       -9.153111   -3.581968    2.131128
      8          6           0       -7.254837   -3.081423    1.258750
      9          1           0       -6.896560   -2.578410    0.384956
     10          1           0       -6.899789   -4.090799    1.260019
     11          6           0       -6.741494   -2.355109    2.515947
     12          1           0       -7.099771   -2.858122    3.389741
     13          1           0       -7.096541   -1.345733    2.514677
     14          6           0       -5.201496   -2.357578    2.517363
     15          1           0       -4.843220   -1.854566    1.643568
     16          1           0       -4.846448   -3.366954    2.518634
     17          6           0       -4.688153   -1.631261    3.774559
     18          1           0       -5.046429   -2.134272    4.648354
     19          1           0       -5.043202   -0.621885    3.773287
     20          6           0       -3.148156   -1.633727    3.775973
     21          1           0       -2.789881   -1.130717    2.902177
     22          1           0       -2.793106   -2.643102    3.777247
     23          6           0       -2.634812   -0.907406    5.033166
     24          1           0       -2.993085   -1.410416    5.906963
     25          1           0       -2.989864    0.101969    5.031893
     26          6           0       -1.094815   -0.909868    5.034578
     27          1           0       -0.736543   -0.406859    4.160780
     28          1           0       -0.739763   -1.919242    5.035854
     29          6           0       -0.581472   -0.183542    6.291769
     30          1           0       -0.939742   -0.686552    7.165568
     31          1           0       -0.936527    0.825831    6.290494
     32          6           0        0.958525   -0.186000    6.293178
     33          1           0        1.316794    0.317008    5.419378
     34          1           0        1.313581   -1.195373    6.294455
     35          6           0        1.471869    0.540331    7.550366
     36          1           0        1.113602    0.037323    8.424167
     37          1           0        1.116811    1.549703    7.549089
     38          6           0        3.011866    0.537879    7.551772
     39          1           0        3.370132    1.040886    6.677970
     40          1           0        3.366925   -0.471493    7.553051
     41          6           0        3.525209    1.264213    8.808958
     42          1           0        3.166944    0.761206    9.682760
     43          1           0        3.170150    2.273585    8.807679
     44          6           0        5.065207    1.261762    8.810363
     45          1           0        5.423472    1.764770    7.936561
     46          1           0        5.420266    0.252391    8.811642
     47          6           0        5.578550    1.988097   10.067549
     48          1           0        5.220285    1.485089   10.941351
     49          1           0        6.648548    1.986394   10.068525
     50          1           0        5.223491    2.997469   10.066270
 ---------------------------------------------------------------------
                    Distance matrix (angstroms):
                    1          2          3          4          5
     1  C    0.000000
     2  H    1.070000   0.000000
     3  H    1.070000   1.747303   0.000000
     4  H    1.070000   1.747303   1.747303   0.000000
     5  C    1.540000   2.148263   2.148263   2.148263   0.000000
     6  H    2.148263   3.024610   2.468846   2.468846   1.070000
     7  H    2.148263   2.468846   3.024610   2.468846   1.070000
     8  C    2.514810   2.732978   2.732978   3.444314   1.540000
     9  H    2.732977   3.062242   2.514809   3.710992   2.148263
    10  H    2.732978   2.514810   3.062244   3.710993   2.148263
    11  C    3.875582   4.154945   4.154945   4.653784   2.514810
    12  H    4.154945   4.329404   4.668705   4.810184   2.732978
    13  H    4.154945   4.668704   4.329403   4.810184   2.732978
    14  C    5.029619   5.142175   5.142175   5.935506   3.875582
    15  H    5.142174   5.324483   5.029618   6.094127   4.154944
    16  H    5.142177   5.029620   5.324486   6.094129   4.154946
    17  C    6.349583   6.523852   6.523851   7.165815   5.029619
    18  H    6.523853   6.636327   6.862498   7.268362   5.142177
    19  H    6.523849   6.862496   6.636322   7.268359   5.142174
    20  C    7.544428   7.619929   7.619927   8.440717   6.349583
    21  H    7.619925   7.744122   7.544424   8.553000   6.523848
    22  H    7.619931   7.544433   7.744128   8.553007   6.523854
    23  C    8.846627   8.972528   8.972525   9.679289   7.544429
    24  H    8.972531   9.054640   9.221687   9.755454   7.619932
    25  H    8.972523   9.221682   9.054628   9.755446   7.619924
    26  C   10.059238  10.115988  10.115984  10.950329   8.846627
    27  H   10.115980  10.209861  10.059231  11.037108   8.972522
    28  H   10.115991  10.059246  10.209869  11.037119   8.972532
    29  C   11.351517  11.449910  11.449904  12.193314  10.059238
    30  H   11.449914  11.514372  11.646188  12.253866  10.115992
    31  H   11.449900  11.646180  11.514353  12.253853  10.115980
    32  C   12.574047  12.619495  12.619488  13.461881  11.351517
    33  H   12.619484  12.694866  12.574036  13.532560  11.449900
    34  H   12.619500  12.574059  12.694875  13.532576  11.449914
    35  C   13.860000  13.940702  13.940693  14.707607  12.574047
    36  H   13.940706  13.993698  14.102354  14.757850  12.619500
    37  H   13.940688  14.102345  13.993671  14.757832  12.619483
    38  C   15.088857  15.126753  15.126743  15.974458  13.860000
    39  H   15.126738  15.189685  15.088842  16.034062  13.940688
    40  H   15.126758  15.088872  15.189694  16.034082  13.940706
    41  C   16.370425  16.438809  16.438797  17.222051  15.088857
    42  H   16.438812  16.483777  16.576115  17.264980  15.126757
    43  H   16.438794  16.576108  16.483746  17.264961  15.126739
    44  C   17.603666  17.636162  17.636149  18.487642  16.370425
    45  H   17.636146  17.690168  17.603651  18.539168  16.438795
    46  H   17.636164  17.603682  17.690173  18.539186  16.438811
    47  C   18.882016  18.941337  18.941323  19.736588  17.603666
    48  H   18.941338  18.980378  19.060620  19.774059  17.636163
    49  H   19.736588  19.774058  19.774043  20.611285  18.487642
    50  H   18.941322  19.060618  18.980346  19.774042  17.636148
                    6          7          8          9         10
     6  H    0.000000
     7  H    1.747303   0.000000
     8  C    2.148263   2.148263   0.000000
     9  H    2.468846   3.024610   1.070000   0.000000
    10  H    3.024610   2.468846   1.070000   1.747303   0.000000
    11  C    2.732977   2.732978   1.540000   2.148263   2.148263
    12  H    3.062243   2.514810   2.148263   3.024610   2.468846
    13  H    2.514809   3.062244   2.148263   2.468846   3.024610
    14  C    4.154945   4.154945   2.514809   2.732978   2.732977
    15  H    4.329403   4.668704   2.732977   2.514809   3.062242
    16  H    4.668705   4.329404   2.732979   3.062245   2.514810
    17  C    5.142174   5.142176   3.875582   4.154944   4.154945
    18  H    5.324485   5.029621   4.154946   4.668705   4.329405
    19  H    5.029616   5.324484   4.154943   4.329401   4.668703
    20  C    6.523850   6.523852   5.029619   5.142174   5.142176
    21  H    6.636321   6.862496   5.142172   5.029615   5.324482
    22  H    6.862499   6.636327   5.142178   5.324487   5.029623
    23  C    7.619926   7.619930   6.349583   6.523849   6.523853
    24  H    7.744126   7.544434   6.523855   6.862499   6.636330
    25  H    7.544423   7.744123   6.523848   6.636319   6.862496
    26  C    8.972524   8.972529   7.544429   7.619926   7.619930
    27  H    9.054628   9.221682   7.619923   7.544421   7.744122
    28  H    9.221687   9.054641   7.619933   7.744127   7.544436
    29  C   10.115982  10.115989   8.846627   8.972523   8.972530
    30  H   10.209867  10.059247   8.972532   9.221687   9.054643
    31  H   10.059228  10.209862   8.972521   9.054625   9.221682
    32  C   11.449903  11.449911  10.059238  10.115982  10.115990
    33  H   11.514351  11.646181  10.115979  10.059227  10.209861
    34  H   11.646187  11.514373  10.115993  10.209868  10.059249
    35  C   12.619487  12.619497  11.351517  11.449902  11.449912
    36  H   12.694874  12.574061  11.449915  11.646187  11.514375
    37  H   12.574034  12.694867  11.449899  11.514349  11.646181
    38  C   13.940692  13.940703  12.574047  12.619486  12.619498
    39  H   13.993670  14.102347  12.619483  12.574033  12.694868
    40  H   14.102353  13.993699  12.619500  12.694873  12.574062
    41  C   15.126741  15.126755  13.860000  13.940690  13.940704
    42  H   15.189692  15.088872  13.940705  14.102351  13.993700
    43  H   15.088842  15.189688  13.940689  13.993669  14.102348
    44  C   16.438796  16.438810  15.088857  15.126741  15.126755
    45  H   16.483747  16.576110  15.126740  15.088842  15.189689
    46  H   16.576112  16.483777  15.126756  15.189690  15.088872
    47  C   17.636147  17.636163  16.370425  16.438795  16.438811
    48  H   17.690170  17.603682  16.438810  16.576110  16.483777
    49  H   18.539169  18.539185  17.222051  17.264962  17.264979
    50  H   17.603651  17.690171  16.438796  16.483747  16.576112
                   11         12         13         14         15
    11  C    0.000000
    12  H    1.070000   0.000000
    13  H    1.070000   1.747303   0.000000
    14  C    1.540000   2.148263   2.148263   0.000000
    15  H    2.148263   3.024610   2.468846   1.070000   0.000000
    16  H    2.148263   2.468846   3.024610   1.070000   1.747303
    17  C    2.514809   2.732978   2.732977   1.540000   2.148263
    18  H    2.732978   2.514811   3.062243   2.148263   3.024610
    19  H    2.732977   3.062243   2.514807   2.148263   2.468846
    20  C    3.875582   4.154946   4.154944   2.514809   2.732977
    21  H    4.154943   4.668704   4.329401   2.732976   2.514807
    22  H    4.154947   4.329406   4.668705   2.732979   3.062244
    23  C    5.029619   5.142178   5.142173   3.875582   4.154943
    24  H    5.142178   5.029624   5.324485   4.154947   4.668705
    25  H    5.142172   5.324484   5.029614   4.154943   4.329400
    26  C    6.349583   6.523854   6.523848   5.029619   5.142173
    27  H    6.523847   6.862496   6.636318   5.142172   5.029613
    28  H    6.523855   6.636331   6.862498   5.142179   5.324485
    29  C    7.544428   7.619932   7.619924   6.349583   6.523848
    30  H    7.619933   7.544438   7.744126   6.523856   6.862498
    31  H    7.619923   7.744123   7.544419   6.523847   6.636317
    32  C    8.846626   8.972531   8.972522   7.544428   7.619923
    33  H    8.972520   9.221683   9.054624   7.619922   7.544418
    34  H    8.972533   9.054644   9.221686   7.619933   7.744126
    35  C   10.059238  10.115991  10.115980   8.846627   8.972521
    36  H   10.115993  10.059251  10.209866   8.972533   9.221686
    37  H   10.115978  10.209863  10.059225   8.972520   9.054623
    38  C   11.351517  11.449913  11.449900  10.059238  10.115979
    39  H   11.449899  11.646183  11.514348  10.115979  10.059224
    40  H   11.449915  11.514376  11.646185  10.115993  10.209865
    41  C   12.574047  12.619499  12.619484  11.351517  11.449900
    42  H   12.619499  12.574063  12.694870  11.449914  11.646184
    43  H   12.619484  12.694870  12.574032  11.449900  11.514348
    44  C   13.860000  13.940705  13.940689  12.574047  12.619484
    45  H   13.940690  14.102351  13.993669  12.619485  12.574033
    46  H   13.940704  13.993699  14.102349  12.619498  12.694869
    47  C   15.088857  15.126757  15.126739  13.860000  13.940689
    48  H   15.126754  15.088872  15.189687  13.940703  14.102347
    49  H   15.974458  16.034081  16.034063  14.707607  14.757832
    50  H   15.126742  15.189692  15.088842  13.940692  13.993670
                   16         17         18         19         20
    16  H    0.000000
    17  C    2.148263   0.000000
    18  H    2.468846   1.070000   0.000000
    19  H    3.024610   1.070000   1.747303   0.000000
    20  C    2.732979   1.540000   2.148263   2.148263   0.000000
    21  H    3.062242   2.148263   3.024610   2.468846   1.070000
    22  H    2.514812   2.148263   2.468846   3.024610   1.070000
    23  C    4.154947   2.514810   2.732979   2.732976   1.540000
    24  H    4.329407   2.732979   2.514813   3.062243   2.148263
    25  H    4.668704   2.732976   3.062243   2.514806   2.148263
    26  C    5.142178   3.875582   4.154947   4.154943   2.514810
    27  H    5.324484   4.154943   4.668704   4.329400   2.732976
    28  H    5.029625   4.154947   4.329407   4.668705   2.732979
    29  C    6.523855   5.029619   5.142179   5.142172   3.875582
    30  H    6.636332   5.142179   5.029626   5.324485   4.154947
    31  H    6.862496   5.142172   5.324484   5.029612   4.154942
    32  C    7.619932   6.349583   6.523855   6.523847   5.029619
    33  H    7.744123   6.523847   6.862497   6.636316   5.142171
    34  H    7.544439   6.523856   6.636333   6.862498   5.142179
    35  C    8.972532   7.544429   7.619933   7.619923   6.349583
    36  H    9.054646   7.619934   7.544440   7.744125   6.523856
    37  H    9.221684   7.619922   7.744124   7.544418   6.523847
    38  C   10.115992   8.846627   8.972533   8.972521   7.544429
    39  H   10.209864   8.972521   9.221685   9.054622   7.619923
    40  H   10.059252   8.972533   9.054646   9.221685   7.619933
    41  C   11.449914  10.059238  10.115993  10.115979   8.846627
    42  H   11.514376  10.115992  10.059251  10.209864   8.972532
    43  H   11.646185  10.115980  10.209866  10.059225   8.972522
    44  C   12.619500  11.351517  11.449915  11.449899  10.059238
    45  H   12.694872  11.449902  11.646186  11.514349  10.115981
    46  H   12.574062  11.449912  11.514375  11.646182  10.115990
    47  C   13.940706  12.574048  12.619500  12.619484  11.351517
    48  H   13.993698  12.619497  12.574061  12.694867  11.449911
    49  H   14.757850  13.461881  13.532577  13.532560  12.193314
    50  H   14.102353  12.619487  12.694874  12.574034  11.449903
                   21         22         23         24         25
    21  H    0.000000
    22  H    1.747303   0.000000
    23  C    2.148263   2.148263   0.000000
    24  H    3.024610   2.468846   1.070000   0.000000
    25  H    2.468846   3.024610   1.070000   1.747303   0.000000
    26  C    2.732976   2.732979   1.540000   2.148263   2.148263
    27  H    2.514806   3.062243   2.148263   3.024610   2.468846
    28  H    3.062244   2.514813   2.148263   2.468846   3.024610
    29  C    4.154943   4.154947   2.514809   2.732979   2.732976
    30  H    4.668705   4.329408   2.732979   2.514813   3.062243
    31  H    4.329399   4.668704   2.732976   3.062243   2.514806
    32  C    5.142172   5.142179   3.875582   4.154947   4.154942
    33  H    5.029612   5.324484   4.154942   4.668704   4.329399
    34  H    5.324485   5.029626   4.154947   4.329408   4.668704
    35  C    6.523847   6.523855   5.029619   5.142179   5.142171
    36  H    6.862498   6.636333   5.142179   5.029627   5.324484
    37  H    6.636316   6.862497   5.142171   5.324484   5.029611
    38  C    7.619923   7.619933   6.349583   6.523856   6.523847
    39  H    7.544418   7.744125   6.523847   6.862498   6.636316
    40  H    7.744125   7.544439   6.523855   6.636333   6.862497
    41  C    8.972521   8.972533   7.544428   7.619933   7.619922
    42  H    9.221684   9.054645   7.619932   7.544438   7.744123
    43  H    9.054624   9.221686   7.619924   7.744126   7.544419
    44  C   10.115979  10.115993   8.846626   8.972533   8.972520
    45  H   10.059227  10.209867   8.972523   9.221687   9.054625
    46  H   10.209862  10.059249   8.972530   9.054644   9.221682
    47  C   11.449900  11.449914  10.059238  10.115992  10.115979
    48  H   11.646181  11.514373  10.115989  10.059248  10.209861
    49  H   12.253852  12.253867  10.950329  11.037120  11.037106
    50  H   11.514351  11.646187  10.115983  10.209868  10.059228
                   26         27         28         29         30
    26  C    0.000000
    27  H    1.070000   0.000000
    28  H    1.070000   1.747303   0.000000
    29  C    1.540000   2.148263   2.148263   0.000000
    30  H    2.148263   3.024610   2.468846   1.070000   0.000000
    31  H    2.148263   2.468846   3.024610   1.070000   1.747303
    32  C    2.514809   2.732976   2.732979   1.540000   2.148263
    33  H    2.732976   2.514805   3.062243   2.148263   3.024610
    34  H    2.732979   3.062243   2.514813   2.148263   2.468846
    35  C    3.875582   4.154942   4.154947   2.514809   2.732979
    36  H    4.154947   4.668704   4.329408   2.732979   2.514813
    37  H    4.154942   4.329399   4.668704   2.732976   3.062243
    38  C    5.029619   5.142171   5.142179   3.875582   4.154948
    39  H    5.142172   5.029612   5.324485   4.154943   4.668705
    40  H    5.142179   5.324484   5.029626   4.154947   4.329408
    41  C    6.349583   6.523847   6.523856   5.029619   5.142179
    42  H    6.523854   6.862496   6.636331   5.142178   5.029625
    43  H    6.523848   6.636317   6.862499   5.142173   5.324486
    44  C    7.544428   7.619923   7.619933   6.349583   6.523855
    45  H    7.619925   7.544420   7.744127   6.523849   6.862499
    46  H    7.619930   7.744122   7.544436   6.523853   6.636330
    47  C    8.846626   8.972521   8.972532   7.544428   7.619932
    48  H    8.972529   9.221681   9.054642   7.619929   7.544434
    49  H    9.679289   9.755444   9.755456   8.440717   8.553008
    50  H    8.972524   9.054627   9.221688   7.619926   7.744128
                   31         32         33         34         35
    31  H    0.000000
    32  C    2.148263   0.000000
    33  H    2.468846   1.070000   0.000000
    34  H    3.024610   1.070000   1.747303   0.000000
    35  C    2.732976   1.540000   2.148263   2.148263   0.000000
    36  H    3.062243   2.148263   3.024610   2.468846   1.070000
    37  H    2.514806   2.148263   2.468846   3.024610   1.070000
    38  C    4.154942   2.514810   2.732976   2.732980   1.540000
    39  H    4.329399   2.732976   2.514806   3.062244   2.148263
    40  H    4.668704   2.732979   3.062242   2.514813   2.148263
    41  C    5.142172   3.875582   4.154943   4.154947   2.514810
    42  H    5.324483   4.154946   4.668703   4.329406   2.732978
    43  H    5.029613   4.154944   4.329400   4.668705   2.732977
    44  C    6.523847   5.029619   5.142172   5.142178   3.875582
    45  H    6.636319   5.142174   5.029615   5.324486   4.154944
    46  H    6.862495   5.142176   5.324482   5.029623   4.154945
    47  C    7.619923   6.349583   6.523848   6.523854   5.029619
    48  H    7.744122   6.523852   6.862495   6.636328   5.142176
    49  H    8.552999   7.165815   7.268358   7.268364   5.935506
    50  H    7.544422   6.523850   6.636321   6.862499   5.142175
                   36         37         38         39         40
    36  H    0.000000
    37  H    1.747303   0.000000
    38  C    2.148263   2.148263   0.000000
    39  H    3.024610   2.468846   1.070000   0.000000
    40  H    2.468846   3.024610   1.070000   1.747303   0.000000
    41  C    2.732979   2.732976   1.540000   2.148263   2.148263
    42  H    2.514812   3.062242   2.148263   3.024610   2.468846
    43  H    3.062244   2.514808   2.148263   2.468846   3.024610
    44  C    4.154946   4.154944   2.514809   2.732977   2.732978
    45  H    4.668705   4.329402   2.732978   2.514809   3.062244
    46  H    4.329405   4.668703   2.732978   3.062243   2.514810
    47  C    5.142177   5.142174   3.875582   4.154944   4.154945
    48  H    5.029621   5.324483   4.154945   4.668704   4.329404
    49  H    6.094130   6.094127   4.653783   4.810183   4.810184
    50  H    5.324486   5.029617   4.154945   4.329403   4.668705
                   41         42         43         44         45
    41  C    0.000000
    42  H    1.070000   0.000000
    43  H    1.070000   1.747303   0.000000
    44  C    1.540000   2.148263   2.148263   0.000000
    45  H    2.148263   3.024610   2.468846   1.070000   0.000000
    46  H    2.148263   2.468846   3.024610   1.070000   1.747303
    47  C    2.514809   2.732978   2.732977   1.540000   2.148263
    48  H    2.732978   2.514809   3.062243   2.148263   3.024610
    49  H    3.444314   3.710993   3.710993   2.148263   2.468846
    50  H    2.732978   3.062243   2.514809   2.148263   2.468846
                   46         47         48         49         50
    46  H    0.000000
    47  C    2.148263   0.000000
    48  H    2.468846   1.070000   0.000000
    49  H    2.468846   1.070000   1.747303   0.000000
    50  H    3.024610   1.070000   1.747303   1.747303   0.000000
 Stoichiometry    C16H34
 Framework group  C1[X(C16H34)]
 Deg. of freedom   144
 Full point group                 C1      NOp   1
 Largest Abelian subgroup         C1      NOp   1
 Largest concise Abelian subgroup C1      NOp   1
                         Standard orientation:                         
 ---------------------------------------------------------------------
 Center     Atomic      Atomic             Coordinates (Angstroms)
 Number     Number       Type             X           Y           Z
 ---------------------------------------------------------------------
      1          6           0       -9.434514   -0.350125   -0.000033
      2          1           0       -9.440705   -0.967861    0.873617
      3          1           0       -9.440691   -0.967857   -0.873686
      4          1           0      -10.301937    0.276355   -0.000039
      5          6           0       -8.168271    0.526362   -0.000021
      6          1           0       -8.162079    1.144097   -0.873671
      7          1           0       -8.162093    1.144094    0.873632
      8          6           0       -6.919830   -0.375302   -0.000012
      9          1           0       -6.926008   -0.993034   -0.873665
     10          1           0       -6.926022   -0.993037    0.873638
     11          6           0       -5.653587    0.501185   -0.000001
     12          1           0       -5.647409    1.118918    0.873651
     13          1           0       -5.647396    1.118920   -0.873652
     14          6           0       -4.405147   -0.400478    0.000007
     15          1           0       -4.411326   -1.018212   -0.873644
     16          1           0       -4.411337   -1.018212    0.873659
     17          6           0       -3.138904    0.476008    0.000015
     18          1           0       -3.132724    1.093742    0.873667
     19          1           0       -3.132714    1.093743   -0.873636
     20          6           0       -1.890463   -0.425655    0.000021
     21          1           0       -1.896645   -1.043389   -0.873629
     22          1           0       -1.896651   -1.043388    0.873673
     23          6           0       -0.624220    0.450832    0.000024
     24          1           0       -0.618037    1.068565    0.873676
     25          1           0       -0.618034    1.068566   -0.873627
     26          6           0        0.624220   -0.450832    0.000026
     27          1           0        0.618035   -1.068566   -0.873625
     28          1           0        0.618036   -1.068564    0.873678
     29          6           0        1.890463    0.425655    0.000023
     30          1           0        1.896650    1.043388    0.873675
     31          1           0        1.896646    1.043389   -0.873628
     32          6           0        3.138904   -0.476008    0.000019
     33          1           0        3.132715   -1.093743   -0.873632
     34          1           0        3.132723   -1.093741    0.873671
     35          6           0        4.405147    0.400478    0.000011
     36          1           0        4.411338    1.018211    0.873663
     37          1           0        4.411325    1.018213   -0.873640
     38          6           0        5.653587   -0.501185    0.000000
     39          1           0        5.647395   -1.118919   -0.873651
     40          1           0        5.647410   -1.118919    0.873652
     41          6           0        6.919830    0.375302   -0.000011
     42          1           0        6.926023    0.993035    0.873640
     43          1           0        6.926007    0.993035   -0.873663
     44          6           0        8.168271   -0.526362   -0.000023
     45          1           0        8.162078   -1.144095   -0.873675
     46          1           0        8.162094   -1.144096    0.873628
     47          6           0        9.434514    0.350125   -0.000036
     48          1           0        9.440707    0.967859    0.873616
     49          1           0       10.301937   -0.276355   -0.000044
     50          1           0        9.440690    0.967859   -0.873687
 ---------------------------------------------------------------------
 Rotational constants (GHZ):           5.1386140           0.0650123           0.0646041
 Standard basis: 6-31G (6D, 7F)
 There are   212 symmetry adapted cartesian basis functions of A   symmetry.
 There are   212 symmetry adapted basis functions of A   symmetry.
   212 basis functions,   488 primitive gaussians,   212 cartesian basis functions
    65 alpha electrons       65 beta electrons
       nuclear repulsion energy      1015.0937104571 Hartrees.
 NAtoms=   50 NActive=   50 NUniq=   50 SFac= 1.00D+00 NAtFMM=   60 NAOKFM=F Big=F
 Integral buffers will be    131072 words long.
 Raffenetti 2 integral format.
 Two-electron integral symmetry is turned on.
 One-electron integrals computed using PRISM.
 NBasis=   212 RedAO= T EigKep=  3.03D-03  NBF=   212
 NBsUse=   212 1.00D-06 EigRej= -1.00D+00 NBFU=   212
 ExpMin= 1.61D-01 ExpMax= 3.05D+03 ExpMxC= 4.57D+02 IAcc=3 IRadAn=         5 AccDes= 0.00D+00
 Harris functional with IExCor=  402 and IRadAn=       5 diagonalized for initial guess.
 HarFok:  IExCor=  402 AccDes= 0.00D+00 IRadAn=         5 IDoV= 1 UseB2=F ITyADJ=14
 ICtDFT=  3500011 ScaDFX=  1.000000  1.000000  1.000000  1.000000
 FoFCou: FMM=F IPFlag=           0 FMFlag=      100000 FMFlg1=           0
         NFxFlg=           0 DoJE=T BraDBF=F KetDBF=T FulRan=T
         wScrn=  0.000000 ICntrl=       500 IOpCl=  0 I1Cent=   200000004 NGrid=           0
         NMat0=    1 NMatS0=      1 NMatT0=    0 NMatD0=    1 NMtDS0=    0 NMtDT0=    0
 Petite list used in FoFCou.
 Requested convergence on RMS density matrix=1.00D-08 within 128 cycles.
 Requested convergence on MAX density matrix=1.00D-06.
 Requested convergence on             energy=1.00D-06.
 No special actions if energy rises.
 Integral accuracy reduced to 1.0D-05 until final iterations.
 Initial convergence to 1.0D-05 achieved.  Increase integral accuracy.
 SCF Done:  E(RB3LYP) =  -630.038046395     A.U. after   11 cycles
            NFock= 11  Conv=0.55D-08     -V/T= 2.0035

 **********************************************************************

            Population analysis using the SCF Density.

 **********************************************************************

 Orbital symmetries:
       Occupied  (A) (A) (A) (A) (A) (A) (A) (A) (A) (A) (A) (A)
                 (A) (A) (A) (A) (A) (A) (A) (A) (A) (A) (A) (A)
                 (A) (A) (A) (A) (A) (A) (A) (A) (A) (A) (A) (A)
                 (A) (A) (A) (A) (A) (A) (A) (A) (A) (A) (A) (A)
                 (A) (A) (A) (A) (A) (A) (A) (A) (A) (A) (A) (A)
                 (A) (A) (A) (A) (A)
       Virtual   (A) (A) (A) (A) (A) (A) (A) (A) (A) (A) (A) (A)
                 (A) (A) (A) (A) (A) (A) (A) (A) (A) (A) (A) (A)
                 (A) (A) (A) (A) (A) (A) (A) (A) (A) (A) (A) (A)
                 (A) (A) (A) (A) (A) (A) (A) (A) (A) (A) (A) (A)
                 (A) (A) (A) (A) (A) (A) (A) (A) (A) (A) (A) (A)
                 (A) (A) (A) (A) (A) (A) (A) (A) (A) (A) (A) (A)
                 (A) (A) (A) (A) (A) (A) (A) (A) (A) (A) (A) (A)
                 (A) (A) (A) (A) (A) (A) (A) (A) (A) (A) (A) (A)
                 (A) (A) (A) (A) (A) (A) (A) (A) (A) (A) (A) (A)
                 (A) (A) (A) (A) (A) (A) (A) (A) (A) (A) (A) (A)
                 (A) (A) (A) (A) (A) (A) (A) (A) (A) (A) (A) (A)
                 (A) (A) (A) (A) (A) (A) (A) (A) (A) (A) (A) (A)
                 (A) (A) (A)
 The electronic state is 1-A.
 Alpha  occ. eigenvalues --  -10.16077 -10.16077 -10.15815 -10.15815 -10.15756
 Alpha  occ. eigenvalues --  -10.15756 -10.15731 -10.15731 -10.15708 -10.15708
 Alpha  occ. eigenvalues --  -10.15699 -10.15695 -10.15687 -10.15679 -10.15241
 Alpha  occ. eigenvalues --  -10.15241  -0.81512  -0.80847  -0.79692  -0.78090
 Alpha  occ. eigenvalues --   -0.76068  -0.73658  -0.70906  -0.67879  -0.64699
 Alpha  occ. eigenvalues --   -0.61604  -0.59056  -0.58453  -0.58055  -0.57729
 Alpha  occ. eigenvalues --   -0.57253  -0.57104  -0.49417  -0.48798  -0.47743
 Alpha  occ. eigenvalues --   -0.46315  -0.44579  -0.42965  -0.42617  -0.42533
 Alpha  occ. eigenvalues --   -0.41756  -0.40848  -0.40537  -0.39270  -0.38966
 Alpha  occ. eigenvalues --   -0.38469  -0.37022  -0.36560  -0.35701  -0.35258
 Alpha  occ. eigenvalues --   -0.34956  -0.33893  -0.33768  -0.33035  -0.32943
 Alpha  occ. eigenvalues --   -0.32742  -0.32732  -0.32592  -0.32569  -0.32399
 Alpha  occ. eigenvalues --   -0.32119  -0.31988  -0.31797  -0.28259  -0.25655
 Alpha virt. eigenvalues --    0.08799   0.09232   0.09891   0.10650   0.11536
 Alpha virt. eigenvalues --    0.11734   0.12613   0.12773   0.12938   0.13747
 Alpha virt. eigenvalues --    0.14099   0.14737   0.15197   0.16103   0.17091
 Alpha virt. eigenvalues --    0.17257   0.18266   0.18384   0.18693   0.19930
 Alpha virt. eigenvalues --    0.20218   0.20266   0.20282   0.20698   0.20715
 Alpha virt. eigenvalues --    0.20789   0.21394   0.21592   0.21601   0.21641
 Alpha virt. eigenvalues --    0.22487   0.22657   0.22909   0.23112   0.23498
 Alpha virt. eigenvalues --    0.23615   0.23654   0.24292   0.24413   0.25248
 Alpha virt. eigenvalues --    0.25508   0.26267   0.27065   0.27551   0.28912
 Alpha virt. eigenvalues --    0.30754   0.31093   0.36394   0.36605   0.47331
 Alpha virt. eigenvalues --    0.50023   0.53232   0.54771   0.54928   0.56393
 Alpha virt. eigenvalues --    0.57393   0.57412   0.57702   0.58832   0.59142
 Alpha virt. eigenvalues --    0.59214   0.59757   0.60119   0.60440   0.60568
 Alpha virt. eigenvalues --    0.62461   0.63153   0.63652   0.65005   0.66336
 Alpha virt. eigenvalues --    0.67265   0.67895   0.69072   0.69151   0.70914
 Alpha virt. eigenvalues --    0.72364   0.72539   0.72712   0.73524   0.74920
 Alpha virt. eigenvalues --    0.76868   0.77705   0.77794   0.80189   0.81008
 Alpha virt. eigenvalues --    0.82288   0.84273   0.84341   0.84623   0.84721
 Alpha virt. eigenvalues --    0.85718   0.85903   0.89241   0.89751   0.90555
 Alpha virt. eigenvalues --    0.90558   0.91339   0.91962   0.93953   0.96441
 Alpha virt. eigenvalues --    0.96488   0.96596   0.97185   0.97556   0.98998
 Alpha virt. eigenvalues --    0.99155   0.99958   1.01622   1.01666   1.02756
 Alpha virt. eigenvalues --    1.03083   1.03249   1.03416   1.03659   1.03840
 Alpha virt. eigenvalues --    1.03944   1.04140   1.04177   1.04610   1.05258
 Alpha virt. eigenvalues --    1.05342   1.05456   1.05892   1.07481   1.09151
 Alpha virt. eigenvalues --    1.13883   1.14607   1.20982   1.22317   1.23689
 Alpha virt. eigenvalues --    1.28132   1.33948   1.36904   1.38548   1.42427
 Alpha virt. eigenvalues --    1.45771   1.48451   1.49566   1.50460   1.51584
 Alpha virt. eigenvalues --    1.52975   1.57833   1.57839   1.68560   1.84847
 Alpha virt. eigenvalues --    2.01509   2.11230
          Condensed to atoms (all electrons):
               1          2          3          4          5          6
     1  C    5.081631   0.382021   0.382021   0.369167   0.326719  -0.041922
     2  H    0.382021   0.593024  -0.034040  -0.032651  -0.039246   0.005729
     3  H    0.382021  -0.034040   0.593024  -0.032651  -0.039246  -0.005145
     4  H    0.369167  -0.032651  -0.032651   0.602236  -0.032721  -0.002703
     5  C    0.326719  -0.039246  -0.039246  -0.032721   5.057577   0.383624
     6  H   -0.041922   0.005729  -0.005145  -0.002703   0.383624   0.619869
     7  H   -0.041922  -0.005145   0.005729  -0.002703   0.383624  -0.040473
     8  C   -0.053297  -0.005313  -0.005313   0.005311   0.335300  -0.043024
     9  H   -0.003066  -0.000617   0.005532   0.000011  -0.043926  -0.006118
    10  H   -0.003066   0.005532  -0.000617   0.000011  -0.043926   0.006195
    11  C    0.005439   0.000084   0.000084  -0.000233  -0.045538  -0.003565
    12  H    0.000061   0.000002   0.000008   0.000003  -0.003544  -0.000622
    13  H    0.000061   0.000008   0.000002   0.000003  -0.003544   0.005302
    14  C   -0.000231   0.000001   0.000001   0.000003   0.005247   0.000064
    15  H    0.000002   0.000001  -0.000003   0.000000   0.000056   0.000005
    16  H    0.000002  -0.000003   0.000001   0.000000   0.000056   0.000005
    17  C    0.000002   0.000000   0.000000   0.000000  -0.000217   0.000002
    18  H    0.000000   0.000000   0.000000   0.000000   0.000002   0.000001
    19  H    0.000000   0.000000   0.000000   0.000000   0.000002  -0.000003
    20  C    0.000000   0.000000   0.000000   0.000000   0.000002   0.000000
    21  H    0.000000   0.000000   0.000000   0.000000   0.000000   0.000000
    22  H    0.000000   0.000000   0.000000   0.000000   0.000000   0.000000
    23  C    0.000000   0.000000   0.000000   0.000000   0.000000   0.000000
    24  H    0.000000   0.000000   0.000000   0.000000   0.000000   0.000000
    25  H    0.000000   0.000000   0.000000   0.000000   0.000000   0.000000
    26  C    0.000000   0.000000   0.000000   0.000000   0.000000   0.000000
    27  H    0.000000   0.000000   0.000000   0.000000   0.000000   0.000000
    28  H    0.000000   0.000000   0.000000   0.000000   0.000000   0.000000
    29  C    0.000000   0.000000   0.000000   0.000000   0.000000   0.000000
    30  H    0.000000   0.000000   0.000000   0.000000   0.000000   0.000000
    31  H    0.000000   0.000000   0.000000   0.000000   0.000000   0.000000
    32  C    0.000000   0.000000   0.000000   0.000000   0.000000   0.000000
    33  H    0.000000   0.000000   0.000000   0.000000   0.000000   0.000000
    34  H    0.000000   0.000000   0.000000   0.000000   0.000000   0.000000
    35  C    0.000000   0.000000   0.000000   0.000000   0.000000   0.000000
    36  H    0.000000   0.000000   0.000000   0.000000   0.000000   0.000000
    37  H    0.000000   0.000000   0.000000   0.000000   0.000000   0.000000
    38  C    0.000000   0.000000   0.000000   0.000000   0.000000   0.000000
    39  H    0.000000   0.000000   0.000000   0.000000   0.000000   0.000000
    40  H    0.000000   0.000000   0.000000   0.000000   0.000000   0.000000
    41  C    0.000000   0.000000   0.000000   0.000000   0.000000   0.000000
    42  H    0.000000   0.000000   0.000000   0.000000   0.000000   0.000000
    43  H    0.000000   0.000000   0.000000   0.000000   0.000000   0.000000
    44  C    0.000000   0.000000   0.000000   0.000000   0.000000   0.000000
    45  H    0.000000   0.000000   0.000000   0.000000   0.000000   0.000000
    46  H    0.000000   0.000000   0.000000   0.000000   0.000000   0.000000
    47  C    0.000000   0.000000   0.000000   0.000000   0.000000   0.000000
    48  H    0.000000   0.000000   0.000000   0.000000   0.000000   0.000000
    49  H    0.000000   0.000000   0.000000   0.000000   0.000000   0.000000
    50  H    0.000000   0.000000   0.000000   0.000000   0.000000   0.000000
               7          8          9         10         11         12
     1  C   -0.041922  -0.053297  -0.003066  -0.003066   0.005439   0.000061
     2  H   -0.005145  -0.005313  -0.000617   0.005532   0.000084   0.000002
     3  H    0.005729  -0.005313   0.005532  -0.000617   0.000084   0.000008
     4  H   -0.002703   0.005311   0.000011   0.000011  -0.000233   0.000003
     5  C    0.383624   0.335300  -0.043926  -0.043926  -0.045538  -0.003544
     6  H   -0.040473  -0.043024  -0.006118   0.006195  -0.003565  -0.000622
     7  H    0.619869  -0.043024   0.006195  -0.006118  -0.003565   0.005302
     8  C   -0.043024   5.089592   0.381329   0.381329   0.320929  -0.042999
     9  H    0.006195   0.381329   0.624284  -0.041554  -0.042741   0.006168
    10  H   -0.006118   0.381329  -0.041554   0.624284  -0.042741  -0.006076
    11  C   -0.003565   0.320929  -0.042741  -0.042741   5.103213   0.381266
    12  H    0.005302  -0.042999   0.006168  -0.006076   0.381266   0.623984
    13  H   -0.000621  -0.042999  -0.006076   0.006168   0.381266  -0.041385
    14  C    0.000064  -0.045259  -0.003440  -0.003440   0.316446  -0.042923
    15  H    0.000005  -0.003477   0.005216  -0.000608  -0.043105   0.006160
    16  H    0.000005  -0.003477  -0.000608   0.005216  -0.043104  -0.006071
    17  C    0.000002   0.005213   0.000068   0.000068  -0.044856  -0.003422
    18  H   -0.000003   0.000062   0.000004   0.000006  -0.003430   0.005217
    19  H    0.000001   0.000062   0.000006   0.000004  -0.003430  -0.000604
    20  C    0.000000  -0.000219   0.000002   0.000002   0.005174   0.000064
    21  H    0.000000   0.000002  -0.000003   0.000001   0.000063   0.000004
    22  H    0.000000   0.000002   0.000001  -0.000003   0.000063   0.000006
    23  C    0.000000   0.000002   0.000000   0.000000  -0.000217   0.000002
    24  H    0.000000   0.000000   0.000000   0.000000   0.000002  -0.000003
    25  H    0.000000   0.000000   0.000000   0.000000   0.000002   0.000001
    26  C    0.000000   0.000000   0.000000   0.000000   0.000002   0.000000
    27  H    0.000000   0.000000   0.000000   0.000000   0.000000   0.000000
    28  H    0.000000   0.000000   0.000000   0.000000   0.000000   0.000000
    29  C    0.000000   0.000000   0.000000   0.000000   0.000000   0.000000
    30  H    0.000000   0.000000   0.000000   0.000000   0.000000   0.000000
    31  H    0.000000   0.000000   0.000000   0.000000   0.000000   0.000000
    32  C    0.000000   0.000000   0.000000   0.000000   0.000000   0.000000
    33  H    0.000000   0.000000   0.000000   0.000000   0.000000   0.000000
    34  H    0.000000   0.000000   0.000000   0.000000   0.000000   0.000000
    35  C    0.000000   0.000000   0.000000   0.000000   0.000000   0.000000
    36  H    0.000000   0.000000   0.000000   0.000000   0.000000   0.000000
    37  H    0.000000   0.000000   0.000000   0.000000   0.000000   0.000000
    38  C    0.000000   0.000000   0.000000   0.000000   0.000000   0.000000
    39  H    0.000000   0.000000   0.000000   0.000000   0.000000   0.000000
    40  H    0.000000   0.000000   0.000000   0.000000   0.000000   0.000000
    41  C    0.000000   0.000000   0.000000   0.000000   0.000000   0.000000
    42  H    0.000000   0.000000   0.000000   0.000000   0.000000   0.000000
    43  H    0.000000   0.000000   0.000000   0.000000   0.000000   0.000000
    44  C    0.000000   0.000000   0.000000   0.000000   0.000000   0.000000
    45  H    0.000000   0.000000   0.000000   0.000000   0.000000   0.000000
    46  H    0.000000   0.000000   0.000000   0.000000   0.000000   0.000000
    47  C    0.000000   0.000000   0.000000   0.000000   0.000000   0.000000
    48  H    0.000000   0.000000   0.000000   0.000000   0.000000   0.000000
    49  H    0.000000   0.000000   0.000000   0.000000   0.000000   0.000000
    50  H    0.000000   0.000000   0.000000   0.000000   0.000000   0.000000
              13         14         15         16         17         18
     1  C    0.000061  -0.000231   0.000002   0.000002   0.000002   0.000000
     2  H    0.000008   0.000001   0.000001  -0.000003   0.000000   0.000000
     3  H    0.000002   0.000001  -0.000003   0.000001   0.000000   0.000000
     4  H    0.000003   0.000003   0.000000   0.000000   0.000000   0.000000
     5  C   -0.003544   0.005247   0.000056   0.000056  -0.000217   0.000002
     6  H    0.005302   0.000064   0.000005   0.000005   0.000002   0.000001
     7  H   -0.000621   0.000064   0.000005   0.000005   0.000002  -0.000003
     8  C   -0.042999  -0.045259  -0.003477  -0.003477   0.005213   0.000062
     9  H   -0.006076  -0.003440   0.005216  -0.000608   0.000068   0.000004
    10  H    0.006168  -0.003440  -0.000608   0.005216   0.000068   0.000006
    11  C    0.381266   0.316446  -0.043105  -0.043104  -0.044856  -0.003430
    12  H   -0.041385  -0.042923   0.006160  -0.006071  -0.003422   0.005217
    13  H    0.623984  -0.042923  -0.006071   0.006160  -0.003423  -0.000604
    14  C   -0.042923   5.109503   0.381310   0.381310   0.315068  -0.043100
    15  H   -0.006071   0.381310   0.624460  -0.041444  -0.042984   0.006163
    16  H    0.006160   0.381310  -0.041444   0.624460  -0.042984  -0.006071
    17  C   -0.003423   0.315068  -0.042984  -0.042984   5.110514   0.381315
    18  H   -0.000604  -0.043100   0.006163  -0.006071   0.381315   0.624583
    19  H    0.005217  -0.043100  -0.006071   0.006163   0.381315  -0.041440
    20  C    0.000064  -0.044797  -0.003419  -0.003419   0.314583  -0.043041
    21  H    0.000006  -0.003432   0.005217  -0.000603  -0.043082   0.006164
    22  H    0.000004  -0.003432  -0.000603   0.005217  -0.043081  -0.006072
    23  C    0.000002   0.005170   0.000063   0.000063  -0.044753  -0.003421
    24  H    0.000001   0.000063   0.000004   0.000006  -0.003429   0.005218
    25  H   -0.000003   0.000063   0.000006   0.000004  -0.003429  -0.000603
    26  C    0.000000  -0.000218   0.000002   0.000002   0.005170   0.000063
    27  H    0.000000   0.000002  -0.000003   0.000001   0.000063   0.000004
    28  H    0.000000   0.000002   0.000001  -0.000003   0.000063   0.000006
    29  C    0.000000   0.000002   0.000000   0.000000  -0.000218   0.000002
    30  H    0.000000   0.000000   0.000000   0.000000   0.000002  -0.000003
    31  H    0.000000   0.000000   0.000000   0.000000   0.000002   0.000001
    32  C    0.000000   0.000000   0.000000   0.000000   0.000002   0.000000
    33  H    0.000000   0.000000   0.000000   0.000000   0.000000   0.000000
    34  H    0.000000   0.000000   0.000000   0.000000   0.000000   0.000000
    35  C    0.000000   0.000000   0.000000   0.000000   0.000000   0.000000
    36  H    0.000000   0.000000   0.000000   0.000000   0.000000   0.000000
    37  H    0.000000   0.000000   0.000000   0.000000   0.000000   0.000000
    38  C    0.000000   0.000000   0.000000   0.000000   0.000000   0.000000
    39  H    0.000000   0.000000   0.000000   0.000000   0.000000   0.000000
    40  H    0.000000   0.000000   0.000000   0.000000   0.000000   0.000000
    41  C    0.000000   0.000000   0.000000   0.000000   0.000000   0.000000
    42  H    0.000000   0.000000   0.000000   0.000000   0.000000   0.000000
    43  H    0.000000   0.000000   0.000000   0.000000   0.000000   0.000000
    44  C    0.000000   0.000000   0.000000   0.000000   0.000000   0.000000
    45  H    0.000000   0.000000   0.000000   0.000000   0.000000   0.000000
    46  H    0.000000   0.000000   0.000000   0.000000   0.000000   0.000000
    47  C    0.000000   0.000000   0.000000   0.000000   0.000000   0.000000
    48  H    0.000000   0.000000   0.000000   0.000000   0.000000   0.000000
    49  H    0.000000   0.000000   0.000000   0.000000   0.000000   0.000000
    50  H    0.000000   0.000000   0.000000   0.000000   0.000000   0.000000
              19         20         21         22         23         24
     1  C    0.000000   0.000000   0.000000   0.000000   0.000000   0.000000
     2  H    0.000000   0.000000   0.000000   0.000000   0.000000   0.000000
     3  H    0.000000   0.000000   0.000000   0.000000   0.000000   0.000000
     4  H    0.000000   0.000000   0.000000   0.000000   0.000000   0.000000
     5  C    0.000002   0.000002   0.000000   0.000000   0.000000   0.000000
     6  H   -0.000003   0.000000   0.000000   0.000000   0.000000   0.000000
     7  H    0.000001   0.000000   0.000000   0.000000   0.000000   0.000000
     8  C    0.000062  -0.000219   0.000002   0.000002   0.000002   0.000000
     9  H    0.000006   0.000002  -0.000003   0.000001   0.000000   0.000000
    10  H    0.000004   0.000002   0.000001  -0.000003   0.000000   0.000000
    11  C   -0.003430   0.005174   0.000063   0.000063  -0.000217   0.000002
    12  H   -0.000604   0.000064   0.000004   0.000006   0.000002  -0.000003
    13  H    0.005217   0.000064   0.000006   0.000004   0.000002   0.000001
    14  C   -0.043100  -0.044797  -0.003432  -0.003432   0.005170   0.000063
    15  H   -0.006071  -0.003419   0.005217  -0.000603   0.000063   0.000004
    16  H    0.006163  -0.003419  -0.000603   0.005217   0.000063   0.000006
    17  C    0.381315   0.314583  -0.043082  -0.043081  -0.044753  -0.003429
    18  H   -0.041440  -0.043041   0.006164  -0.006072  -0.003421   0.005218
    19  H    0.624583  -0.043041  -0.006072   0.006164  -0.003421  -0.000603
    20  C   -0.043041   5.111169   0.381295   0.381294   0.314538  -0.043074
    21  H   -0.006072   0.381295   0.624697  -0.041453  -0.043054   0.006166
    22  H    0.006164   0.381294  -0.041453   0.624697  -0.043054  -0.006073
    23  C   -0.003421   0.314538  -0.043054  -0.043054   5.111184   0.381292
    24  H   -0.000603  -0.043074   0.006166  -0.006073   0.381292   0.624732
    25  H    0.005218  -0.043074  -0.006073   0.006166   0.381292  -0.041456
    26  C    0.000063  -0.044771  -0.003424  -0.003424   0.314521  -0.043065
    27  H    0.000006  -0.003427   0.005219  -0.000603  -0.043066   0.006166
    28  H    0.000004  -0.003427  -0.000603   0.005219  -0.043065  -0.006073
    29  C    0.000002   0.005171   0.000063   0.000063  -0.044771  -0.003427
    30  H    0.000001   0.000063   0.000004   0.000006  -0.003424   0.005219
    31  H   -0.000003   0.000063   0.000006   0.000004  -0.003424  -0.000603
    32  C    0.000000  -0.000218   0.000002   0.000002   0.005170   0.000063
    33  H    0.000000   0.000002  -0.000003   0.000001   0.000063   0.000004
    34  H    0.000000   0.000002   0.000001  -0.000003   0.000063   0.000006
    35  C    0.000000   0.000002   0.000000   0.000000  -0.000218   0.000002
    36  H    0.000000   0.000000   0.000000   0.000000   0.000002  -0.000003
    37  H    0.000000   0.000000   0.000000   0.000000   0.000002   0.000001
    38  C    0.000000   0.000000   0.000000   0.000000   0.000002   0.000000
    39  H    0.000000   0.000000   0.000000   0.000000   0.000000   0.000000
    40  H    0.000000   0.000000   0.000000   0.000000   0.000000   0.000000
    41  C    0.000000   0.000000   0.000000   0.000000   0.000000   0.000000
    42  H    0.000000   0.000000   0.000000   0.000000   0.000000   0.000000
    43  H    0.000000   0.000000   0.000000   0.000000   0.000000   0.000000
    44  C    0.000000   0.000000   0.000000   0.000000   0.000000   0.000000
    45  H    0.000000   0.000000   0.000000   0.000000   0.000000   0.000000
    46  H    0.000000   0.000000   0.000000   0.000000   0.000000   0.000000
    47  C    0.000000   0.000000   0.000000   0.000000   0.000000   0.000000
    48  H    0.000000   0.000000   0.000000   0.000000   0.000000   0.000000
    49  H    0.000000   0.000000   0.000000   0.000000   0.000000   0.000000
    50  H    0.000000   0.000000   0.000000   0.000000   0.000000   0.000000
              25         26         27         28         29         30
     1  C    0.000000   0.000000   0.000000   0.000000   0.000000   0.000000
     2  H    0.000000   0.000000   0.000000   0.000000   0.000000   0.000000
     3  H    0.000000   0.000000   0.000000   0.000000   0.000000   0.000000
     4  H    0.000000   0.000000   0.000000   0.000000   0.000000   0.000000
     5  C    0.000000   0.000000   0.000000   0.000000   0.000000   0.000000
     6  H    0.000000   0.000000   0.000000   0.000000   0.000000   0.000000
     7  H    0.000000   0.000000   0.000000   0.000000   0.000000   0.000000
     8  C    0.000000   0.000000   0.000000   0.000000   0.000000   0.000000
     9  H    0.000000   0.000000   0.000000   0.000000   0.000000   0.000000
    10  H    0.000000   0.000000   0.000000   0.000000   0.000000   0.000000
    11  C    0.000002   0.000002   0.000000   0.000000   0.000000   0.000000
[...]
    45  H    0.000000   0.000000   0.000000   0.000000   0.000000   0.000000
    46  H    0.000000   0.000000   0.000000   0.000000   0.000000   0.000000
    47  C    0.000000   0.000000   0.000000   0.000000   0.000000   0.000000
    48  H    0.000000   0.000000   0.000000   0.000000   0.000000   0.000000
    49  H    0.000000   0.000000   0.000000   0.000000   0.000000   0.000000
    50  H    0.000000   0.000000   0.000000   0.000000   0.000000   0.000000
              31         32         33         34         35         36
     1  C    0.000000   0.000000   0.000000   0.000000   0.000000   0.000000
     2  H    0.000000   0.000000   0.000000   0.000000   0.000000   0.000000
     3  H    0.000000   0.000000   0.000000   0.000000   0.000000   0.000000
     4  H    0.000000   0.000000   0.000000   0.000000   0.000000   0.000000
     5  C    0.000000   0.000000   0.000000   0.000000   0.000000   0.000000
     6  H    0.000000   0.000000   0.000000   0.000000   0.000000   0.000000
     7  H    0.000000   0.000000   0.000000   0.000000   0.000000   0.000000
     8  C    0.000000   0.000000   0.000000   0.000000   0.000000   0.000000
     9  H    0.000000   0.000000   0.000000   0.000000   0.000000   0.000000
    10  H    0.000000   0.000000   0.000000   0.000000   0.000000   0.000000
    11  C    0.000000   0.000000   0.000000   0.000000   0.000000   0.000000
    12  H    0.000000   0.000000   0.000000   0.000000   0.000000   0.000000
    13  H    0.000000   0.000000   0.000000   0.000000   0.000000   0.000000
    14  C    0.000000   0.000000   0.000000   0.000000   0.000000   0.000000
    15  H    0.000000   0.000000   0.000000   0.000000   0.000000   0.000000
    16  H    0.000000   0.000000   0.000000   0.000000   0.000000   0.000000
    17  C    0.000002   0.000001   0.000000   0.000000   0.000000   0.000000
    18  H    0.000001   0.000000   0.000000   0.000000   0.000000   0.000000
    19  H   -0.000002   0.000000   0.000000   0.000000   0.000000   0.000000
    20  C    0.000042  -0.000140   0.000002   0.000002   0.000001   0.000000
    21  H    0.000004   0.000002  -0.000002   0.000001   0.000000   0.000000
    22  H    0.000005   0.000002   0.000001  -0.000002   0.000000   0.000000
    23  C   -0.002926   0.003825   0.000042   0.000042  -0.000140   0.000002
    24  H   -0.000545   0.000042   0.000005   0.000004   0.000002  -0.000002
    25  H    0.005093   0.000042   0.000004   0.000005   0.000002   0.000001
    26  C   -0.043596  -0.035260  -0.002926  -0.002926   0.003823   0.000042
    27  H   -0.005725  -0.002927   0.005093  -0.000545   0.000042   0.000005
    28  H    0.005881  -0.002927  -0.000545   0.005093   0.000042   0.000004
    29  C    0.375601   0.313236  -0.043590  -0.043590  -0.035253  -0.002926
    30  H   -0.042247  -0.043603   0.005881  -0.005725  -0.002927   0.005093
    31  H    0.631074  -0.043603  -0.005725   0.005881  -0.002927  -0.000545
    32  C   -0.043603   5.109403   0.375599   0.375599   0.313345  -0.043572
    33  H   -0.005725   0.375599   0.631087  -0.042251  -0.043608   0.005881
    34  H    0.005881   0.375599  -0.042251   0.631087  -0.043608  -0.005726
    35  C   -0.002927   0.313345  -0.043608  -0.043608   5.108663   0.375623
    36  H   -0.000545  -0.043572   0.005881  -0.005726   0.375623   0.631028
    37  H    0.005093  -0.043572  -0.005726   0.005881   0.375623  -0.042253
    38  C    0.000042  -0.035295  -0.002929  -0.002929   0.314410  -0.043598
    39  H    0.000004  -0.002924   0.005096  -0.000546  -0.043565   0.005883
    40  H    0.000005  -0.002924  -0.000546   0.005096  -0.043565  -0.005728
    41  C    0.000002   0.003855   0.000041   0.000041  -0.035533  -0.002964
    42  H    0.000001   0.000046   0.000005   0.000004  -0.002978   0.005083
    43  H   -0.000002   0.000046   0.000004   0.000005  -0.002978  -0.000546
    44  C    0.000000  -0.000141   0.000002   0.000002   0.003899   0.000037
    45  H    0.000000   0.000002  -0.000002   0.000001   0.000038   0.000005
    46  H    0.000000   0.000002   0.000001  -0.000002   0.000038   0.000003
    47  C    0.000000   0.000001   0.000000   0.000000  -0.000153   0.000002
    48  H    0.000000   0.000000   0.000000   0.000000   0.000001  -0.000001
    49  H    0.000000   0.000000   0.000000   0.000000   0.000001   0.000000
    50  H    0.000000   0.000000   0.000000   0.000000   0.000001   0.000000
              37         38         39         40         41         42
     1  C    0.000000   0.000000   0.000000   0.000000   0.000000   0.000000
     2  H    0.000000   0.000000   0.000000   0.000000   0.000000   0.000000
     3  H    0.000000   0.000000   0.000000   0.000000   0.000000   0.000000
     4  H    0.000000   0.000000   0.000000   0.000000   0.000000   0.000000
     5  C    0.000000   0.000000   0.000000   0.000000   0.000000   0.000000
     6  H    0.000000   0.000000   0.000000   0.000000   0.000000   0.000000
     7  H    0.000000   0.000000   0.000000   0.000000   0.000000   0.000000
     8  C    0.000000   0.000000   0.000000   0.000000   0.000000   0.000000
     9  H    0.000000   0.000000   0.000000   0.000000   0.000000   0.000000
    10  H    0.000000   0.000000   0.000000   0.000000   0.000000   0.000000
    11  C    0.000000   0.000000   0.000000   0.000000   0.000000   0.000000
    12  H    0.000000   0.000000   0.000000   0.000000   0.000000   0.000000
    13  H    0.000000   0.000000   0.000000   0.000000   0.000000   0.000000
    14  C    0.000000   0.000000   0.000000   0.000000   0.000000   0.000000
    15  H    0.000000   0.000000   0.000000   0.000000   0.000000   0.000000
    16  H    0.000000   0.000000   0.000000   0.000000   0.000000   0.000000
    17  C    0.000000   0.000000   0.000000   0.000000   0.000000   0.000000
    18  H    0.000000   0.000000   0.000000   0.000000   0.000000   0.000000
    19  H    0.000000   0.000000   0.000000   0.000000   0.000000   0.000000
    20  C    0.000000   0.000000   0.000000   0.000000   0.000000   0.000000
    21  H    0.000000   0.000000   0.000000   0.000000   0.000000   0.000000
    22  H    0.000000   0.000000   0.000000   0.000000   0.000000   0.000000
    23  C    0.000002   0.000001   0.000000   0.000000   0.000000   0.000000
    24  H    0.000001   0.000000   0.000000   0.000000   0.000000   0.000000
    25  H   -0.000002   0.000000   0.000000   0.000000   0.000000   0.000000
    26  C    0.000042  -0.000140   0.000002   0.000002   0.000001   0.000000
    27  H    0.000004   0.000002  -0.000002   0.000001   0.000000   0.000000
    28  H    0.000005   0.000002   0.000001  -0.000002   0.000000   0.000000
    29  C   -0.002926   0.003826   0.000042   0.000042  -0.000141   0.000001
    30  H   -0.000545   0.000042   0.000005   0.000004   0.000002  -0.000002
    31  H    0.005093   0.000042   0.000004   0.000005   0.000002   0.000001
    32  C   -0.043572  -0.035295  -0.002924  -0.002924   0.003855   0.000046
    33  H   -0.005726  -0.002929   0.005096  -0.000546   0.000041   0.000005
    34  H    0.005881  -0.002929  -0.000546   0.005096   0.000041   0.000004
    35  C    0.375623   0.314410  -0.043565  -0.043565  -0.035533  -0.002978
    36  H   -0.042253  -0.043598   0.005883  -0.005728  -0.002964   0.005083
    37  H    0.631028  -0.043598  -0.005728   0.005883  -0.002964  -0.000546
    38  C   -0.043598   5.103841   0.375550   0.375550   0.318146  -0.043322
    39  H   -0.005728   0.375550   0.631209  -0.042286  -0.043592   0.005889
    40  H    0.005883   0.375550  -0.042286   0.631209  -0.043592  -0.005731
    41  C   -0.002964   0.318146  -0.043592  -0.043592   5.091859   0.375746
    42  H   -0.000546  -0.043322   0.005889  -0.005731   0.375746   0.631855
    43  H    0.005083  -0.043322  -0.005731   0.005889   0.375746  -0.042468
    44  C    0.000037  -0.036061  -0.003042  -0.003042   0.330894  -0.044286
    45  H    0.000003  -0.003078   0.005203  -0.000565  -0.043805   0.005935
    46  H    0.000005  -0.003078  -0.000565   0.005203  -0.043805  -0.005816
    47  C    0.000002   0.004135   0.000042   0.000042  -0.044809  -0.002493
    48  H    0.000000   0.000049   0.000006   0.000001  -0.004407   0.004950
    49  H    0.000000  -0.000159   0.000002   0.000002   0.004321  -0.000016
    50  H   -0.000001   0.000049   0.000001   0.000006  -0.004407  -0.000498
              43         44         45         46         47         48
     1  C    0.000000   0.000000   0.000000   0.000000   0.000000   0.000000
     2  H    0.000000   0.000000   0.000000   0.000000   0.000000   0.000000
     3  H    0.000000   0.000000   0.000000   0.000000   0.000000   0.000000
     4  H    0.000000   0.000000   0.000000   0.000000   0.000000   0.000000
     5  C    0.000000   0.000000   0.000000   0.000000   0.000000   0.000000
     6  H    0.000000   0.000000   0.000000   0.000000   0.000000   0.000000
     7  H    0.000000   0.000000   0.000000   0.000000   0.000000   0.000000
     8  C    0.000000   0.000000   0.000000   0.000000   0.000000   0.000000
     9  H    0.000000   0.000000   0.000000   0.000000   0.000000   0.000000
    10  H    0.000000   0.000000   0.000000   0.000000   0.000000   0.000000
    11  C    0.000000   0.000000   0.000000   0.000000   0.000000   0.000000
    12  H    0.000000   0.000000   0.000000   0.000000   0.000000   0.000000
    13  H    0.000000   0.000000   0.000000   0.000000   0.000000   0.000000
    14  C    0.000000   0.000000   0.000000   0.000000   0.000000   0.000000
    15  H    0.000000   0.000000   0.000000   0.000000   0.000000   0.000000
    16  H    0.000000   0.000000   0.000000   0.000000   0.000000   0.000000
    17  C    0.000000   0.000000   0.000000   0.000000   0.000000   0.000000
    18  H    0.000000   0.000000   0.000000   0.000000   0.000000   0.000000
    19  H    0.000000   0.000000   0.000000   0.000000   0.000000   0.000000
    20  C    0.000000   0.000000   0.000000   0.000000   0.000000   0.000000
    21  H    0.000000   0.000000   0.000000   0.000000   0.000000   0.000000
    22  H    0.000000   0.000000   0.000000   0.000000   0.000000   0.000000
    23  C    0.000000   0.000000   0.000000   0.000000   0.000000   0.000000
    24  H    0.000000   0.000000   0.000000   0.000000   0.000000   0.000000
    25  H    0.000000   0.000000   0.000000   0.000000   0.000000   0.000000
    26  C    0.000000   0.000000   0.000000   0.000000   0.000000   0.000000
    27  H    0.000000   0.000000   0.000000   0.000000   0.000000   0.000000
    28  H    0.000000   0.000000   0.000000   0.000000   0.000000   0.000000
    29  C    0.000001   0.000001   0.000000   0.000000   0.000000   0.000000
    30  H    0.000001   0.000000   0.000000   0.000000   0.000000   0.000000
    31  H   -0.000002   0.000000   0.000000   0.000000   0.000000   0.000000
    32  C    0.000046  -0.000141   0.000002   0.000002   0.000001   0.000000
    33  H    0.000004   0.000002  -0.000002   0.000001   0.000000   0.000000
    34  H    0.000005   0.000002   0.000001  -0.000002   0.000000   0.000000
    35  C   -0.002978   0.003899   0.000038   0.000038  -0.000153   0.000001
    36  H   -0.000546   0.000037   0.000005   0.000003   0.000002  -0.000001
    37  H    0.005083   0.000037   0.000003   0.000005   0.000002   0.000000
    38  C   -0.043322  -0.036061  -0.003078  -0.003078   0.004135   0.000049
    39  H   -0.005731  -0.003042   0.005203  -0.000565   0.000042   0.000006
    40  H    0.005889  -0.003042  -0.000565   0.005203   0.000042   0.000001
    41  C    0.375746   0.330894  -0.043805  -0.043805  -0.044809  -0.004407
    42  H   -0.042468  -0.044286   0.005935  -0.005816  -0.002493   0.004950
    43  H    0.631855  -0.044286  -0.005816   0.005935  -0.002493  -0.000498
    44  C   -0.044286   5.054509   0.378643   0.378643   0.325842  -0.037846
    45  H   -0.005816   0.378643   0.626252  -0.041714  -0.041272   0.005240
    46  H    0.005935   0.378643  -0.041714   0.626252  -0.041272  -0.004739
    47  C   -0.002493   0.325842  -0.041272  -0.041272   5.086861   0.376334
    48  H   -0.000498  -0.037846   0.005240  -0.004739   0.376334   0.597871
    49  H   -0.000016  -0.029398  -0.002673  -0.002673   0.368102  -0.033090
    50  H    0.004950  -0.037846  -0.004739   0.005240   0.376334  -0.034446
              49         50
     1  C    0.000000   0.000000
     2  H    0.000000   0.000000
     3  H    0.000000   0.000000
     4  H    0.000000   0.000000
     5  C    0.000000   0.000000
     6  H    0.000000   0.000000
     7  H    0.000000   0.000000
     8  C    0.000000   0.000000
     9  H    0.000000   0.000000
    10  H    0.000000   0.000000
    11  C    0.000000   0.000000
    12  H    0.000000   0.000000
    13  H    0.000000   0.000000
    14  C    0.000000   0.000000
    15  H    0.000000   0.000000
    16  H    0.000000   0.000000
    17  C    0.000000   0.000000
    18  H    0.000000   0.000000
    19  H    0.000000   0.000000
    20  C    0.000000   0.000000
    21  H    0.000000   0.000000
    22  H    0.000000   0.000000
    23  C    0.000000   0.000000
    24  H    0.000000   0.000000
    25  H    0.000000   0.000000
    26  C    0.000000   0.000000
    27  H    0.000000   0.000000
    28  H    0.000000   0.000000
    29  C    0.000000   0.000000
    30  H    0.000000   0.000000
    31  H    0.000000   0.000000
    32  C    0.000000   0.000000
    33  H    0.000000   0.000000
    34  H    0.000000   0.000000
    35  C    0.000001   0.000001
    36  H    0.000000   0.000000
    37  H    0.000000  -0.000001
    38  C   -0.000159   0.000049
    39  H    0.000002   0.000001
    40  H    0.000002   0.000006
    41  C    0.004321  -0.004407
    42  H   -0.000016  -0.000498
    43  H   -0.000016   0.004950
    44  C   -0.029398  -0.037846
    45  H   -0.002673  -0.004739
    46  H   -0.002673   0.005240
    47  C    0.368102   0.376334
    48  H   -0.033090  -0.034446
    49  H    0.599499  -0.033090
    50  H   -0.033090   0.597871
 Mulliken charges:
               1
     1  C   -0.405205
     2  H    0.130576
     3  H    0.130576
     4  H    0.129188
     5  C   -0.236559
     6  H    0.122341
     7  H    0.122341
     8  C   -0.230634
     9  H    0.118638
    10  H    0.118638
    11  C   -0.238133
    12  H    0.119044
    13  H    0.119044
    14  C   -0.238318
    15  H    0.119169
    16  H    0.119169
    17  C   -0.238158
    18  H    0.119107
    19  H    0.119107
    20  C   -0.238178
    21  H    0.119110
    22  H    0.119110
    23  C   -0.238178
    24  H    0.119103
    25  H    0.119103
    26  C   -0.238178
    27  H    0.119103
    28  H    0.119103
    29  C   -0.238178
    30  H    0.119110
    31  H    0.119110
    32  C   -0.238158
    33  H    0.119107
    34  H    0.119107
    35  C   -0.238318
    36  H    0.119169
    37  H    0.119169
    38  C   -0.238133
    39  H    0.119044
    40  H    0.119044
    41  C   -0.230634
    42  H    0.118638
    43  H    0.118638
    44  C   -0.236559
    45  H    0.122341
    46  H    0.122341
    47  C   -0.405205
    48  H    0.130576
    49  H    0.129188
    50  H    0.130576
 Sum of Mulliken charges =   0.00000
 Mulliken charges with hydrogens summed into heavy atoms:
               1
     1  C   -0.014866
     5  C    0.008124
     8  C    0.006641
    11  C   -0.000045
    14  C    0.000019
    17  C    0.000055
    20  C    0.000043
    23  C    0.000029
    26  C    0.000029
    29  C    0.000043
    32  C    0.000055
    35  C    0.000019
    38  C   -0.000045
    41  C    0.006641
    44  C    0.008124
    47  C   -0.014866
 Electronic spatial extent (au):  <R**2>=          17419.7360
 Charge=              0.0000 electrons
 Dipole moment (field-independent basis, Debye):
    X=              0.0000    Y=              0.0000    Z=              0.0000  Tot=              0.0000
 Quadrupole moment (field-independent basis, Debye-Ang):
   XX=           -110.1660   YY=           -109.3443   ZZ=           -106.7915
   XY=             -0.5644   XZ=              0.0000   YZ=              0.0000
 Traceless Quadrupole moment (field-independent basis, Debye-Ang):
   XX=             -1.3987   YY=             -0.5771   ZZ=              1.9758
   XY=             -0.5644   XZ=              0.0000   YZ=              0.0000
 Octapole moment (field-independent basis, Debye-Ang**2):
  XXX=              0.0000  YYY=              0.0000  ZZZ=              0.0000  XYY=              0.0000
  XXY=              0.0000  XXZ=              0.0000  XZZ=              0.0000  YZZ=              0.0000
  YYZ=              0.0000  XYZ=              0.0000
 Hexadecapole moment (field-independent basis, Debye-Ang**3):
 XXXX=         -24091.8140 YYYY=           -387.0291 ZZZZ=           -223.9452 XXXY=            -99.4572
 XXXZ=              0.0001 YYYX=             -1.0641 YYYZ=              0.0000 ZZZX=              0.0000
 ZZZY=              0.0000 XXYY=          -4047.5866 XXZZ=          -3950.3693 YYZZ=            -93.8067
 XXYZ=              0.0000 YYXZ=              0.0000 ZZXY=              4.6783
 N-N= 9.973181573055D+02 E-N=-3.451570630328D+03  KE= 6.262822826123D+02
 1|1|UNPC-6424705A076343F|FOpt|RB3LYP|6-31G|C16H34|TKMELDRUM|14-Mar-202
 3|0||# opt b3lyp/6-31g geom=connectivity||Title Card Required||0,1|C,-
 9.4906941696,-3.8636428453,-0.1013607623|H,-9.1539282864,-4.9075700764
 ,-0.1360512308|H,-9.1506652835,-3.3745340168,-1.0230720307|H,-10.58698
 12331,-3.8654899291,-0.1085858832|C,-8.937729808,-3.1462191912,1.14059
 50743|H,-9.3164039093,-2.1136051154,1.1674650021|H,-9.3196449846,-3.63
 63363741,2.0485233987|C,-7.3989279375,-3.1210508819,1.1897540729|H,-7.
 0160687619,-2.6303253576,0.2813840362|H,-7.0193126053,-4.1543540965,1.
 1631932018|C,-6.8361172376,-2.4043810524,2.4304432588|H,-7.2198041293,
 -2.8955011898,3.3381576623|H,-7.2165602384,-1.371446948,2.4563337436|C
 ,-5.29758748,-2.3794595553,2.4791747022|H,-4.9138618059,-1.8883303287,
 1.5715204829|H,-4.9171056223,-3.4123461414,2.4533222505|C,-4.73505116,
 -1.662685574,3.7200427643|H,-5.1187638703,-2.1538202952,4.6277118251|H
 ,-5.1155200469,-0.6297834404,3.7458978895|C,-3.1965639747,-1.637816839
 7,3.7686827878|H,-2.8128458662,-1.1466785996,2.8610175877|H,-2.8160896
 958,-2.670717403,3.7428327549|C,-2.6340544019,-0.9210464849,5.00954431
 77|H,-3.0177709642,-1.4121848198,5.9172111481|H,-3.0145272106,0.111855
 5019,5.0353951283|C,-1.0955731374,-0.8961832486,5.0581746764|H,-0.7118
 565766,-0.4050449648,4.1505078192|H,-0.7151003283,-1.9290852379,5.0323
 239226|C,-0.5330635633,-0.179412818,6.2990361627|H,-0.916781581,-0.670
 5510717,7.2067013953|H,-0.9135379319,0.853487711,6.3248861913|C,1.0054
 236226,-0.1545439402,6.3476761024|H,1.3891362403,0.3365907016,5.440006
 9613|H,1.3858926009,-1.1874460444,6.3218210855|C,1.5679599436,0.562230
 2594,7.5885440377|H,1.1842344214,0.0711010718,8.4961983433|H,1.1874779
 355,1.5951167911,7.6143964133|C,3.1064897016,0.5871520093,7.6372753329
 |H,3.4901764442,1.0782720335,6.7295608126|H,3.4869328504,-0.4457820514
 ,7.611385004|C,3.6693004034,1.3038221484,8.8779643389|H,3.2864414023,0
 .81309671,9.7863344964|H,3.2896848974,2.337125302,8.9045250752|C,5.208
 1022747,1.3289907312,8.927123178|H,5.5900172831,1.8191077899,8.0191947
 159|H,5.586776543,0.2963767121,8.9002534263|C,5.7610666379,2.046414728
 3,10.1690788158|H,5.42103792,1.5573060278,11.0907902143|H,6.8573537019
 ,2.0482619893,10.1763038336|H,5.4243005877,3.0903419112,10.2037691089|
 |Version=EM64W-G16RevB.01|State=1-A|HF=-630.069711|RMSD=4.104e-009|RMS
 F=2.253e-005|Dipole=0.,0.,0.|Quadrupole=-0.4320183,0.8411095,-0.409091
 2,-0.2082009,-0.3668246,-1.0858628|PG=C01 [X(C16H34)]||@



 WE LOSE BECAUSE WE WIN

 GAMBLERS,

 RECOLLECTING WHICH,

 TOSS THEIR DICE AGAIN....


                          EMILY DICKINSON  BOLTS OF MELODY NO. 533
 Job cpu time:       0 days  0 hours 28 minutes 37.0 seconds.
 Elapsed time:       0 days  0 hours 28 minutes 32.0 seconds.
 File lengths (MBytes):  RWF=     39 Int=      0 D2E=      0 Chk=      6 Scr=      1
 Normal termination of Gaussian 16 at Tue Mar 14 11:22:17 2023.
