 Entering Link 1 = C:\Gaussian\l1.exe PID=      7148.
  
 Copyright (c) 1988-2017, Gaussian, Inc.  All Rights Reserved.
  
 This is part of the Gaussian(R) 16 program.  It is based on
 the Gaussian(R) 09 system (copyright 2009, Gaussian, Inc.),
 the Gaussian(R) 03 system (copyright 2003, Gaussian, Inc.),
 the Gaussian(R) 98 system (copyright 1998, Gaussian, Inc.),
 the Gaussian(R) 94 system (copyright 1995, Gaussian, Inc.),
 the Gaussian 92(TM) system (copyright 1992, Gaussian, Inc.),
 the Gaussian 90(TM) system (copyright 1990, Gaussian, Inc.),
 the Gaussian 88(TM) system (copyright 1988, Gaussian, Inc.),
 the Gaussian 86(TM) system (copyright 1986, Carnegie Mellon
 University), and the Gaussian 82(TM) system (copyright 1983,
 Carnegie Mellon University). Gaussian is a federally registered
 trademark of Gaussian, Inc.
  
 This software contains proprietary and confidential information,
 including trade secrets, belonging to Gaussian, Inc.
  
 This software is provided under written license and may be
 used, copied, transmitted, or stored only in accord with that
 written license.
  
 The following legend is applicable only to US Government
 contracts under FAR:
  
                    RESTRICTED RIGHTS LEGEND
  
 Use, reproduction and disclosure by the US Government is
 subject to restrictions as set forth in subparagraphs (a)
 and (c) of the Commercial Computer Software - Restricted
 Rights clause in FAR 52.227-19.
  
 Gaussian, Inc.
 340 Quinnipiac St., Bldg. 40, Wallingford CT 06492
  
  
 ---------------------------------------------------------------
 Warning -- This program may not be used in any manner that
 competes with the business of Gaussian, Inc. or will provide
 assistance to any competitor of Gaussian, Inc.  The licensee
 of this program is prohibited from giving any competitor of
 Gaussian, Inc. access to this program.  By using this program,
 the user acknowledges that Gaussian, Inc. is engaged in the
 business of creating and licensing software in the field of
 computational chemistry and represents and warrants to the
 licensee that it is not a competitor of Gaussian, Inc. and that
 it will not use this program in any manner prohibited above.
 ---------------------------------------------------------------
  

 Cite this work as:
 Gaussian 16, Revision B.01,
 M. J. Frisch, G. W. Trucks, H. B. Schlegel, G. E. Scuseria, 
 M. A. Robb, J. R. Cheeseman, G. Scalmani, V. Barone, 
 G. A. Petersson, H. Nakatsuji, X. Li, M. Caricato, A. V. Marenich, 
 J. Bloino, B. G. Janesko, R. Gomperts, B. Mennucci, H. P. Hratchian, 
 J. V. Ortiz, A. F. Izmaylov, J. L. Sonnenberg, D. Williams-Young, 
 F. Ding, F. Lipparini, F. Egidi, J. Goings, B. Peng, A. Petrone, 
 T. Henderson, D. Ranasinghe, V. G. Zakrzewski, J. Gao, N. Rega, 
 G. Zheng, W. Liang, M. Hada, M. Ehara, K. Toyota, R. Fukuda, 
 J. Hasegawa, M. Ishida, T. Nakajima, Y. Honda, O. Kitao, H. Nakai, 
 T. Vreven, K. Throssell, J. A. Montgomery, Jr., J. E. Peralta, 
 F. Ogliaro, M. J. Bearpark, J. J. Heyd, E. N. Brothers, K. N. Kudin, 
 V. N. Staroverov, T. A. Keith, R. Kobayashi, J. Normand, 
 K. Raghavachari, A. P. Rendell, J. C. Burant, S. S. Iyengar, 
 J. Tomasi, M. Cossi, J. M. Millam, M. Klene, C. Adamo, R. Cammi, 
 J. W. Ochterski, R. L. Martin, K. Morokuma, O. Farkas, 
 J. B. Foresman, and D. J. Fox, Gaussian, Inc., Wallingford CT, 2016.
 
 ******************************************
 Gaussian 16:  EM64W-G16RevB.01 16-Dec-2017
                14-Mar-2023 
 ******************************************
 %chk=C:\Users\tkmeldrum\Documents\MDworking\C5H12.chk
 -----------------------------------
 # opt b3lyp/6-31g geom=connectivity
 -----------------------------------
 1/18=20,19=15,26=3,38=1,57=2/1,3;
 2/9=110,12=2,17=6,18=5,40=1/2;
 3/5=1,6=6,11=2,25=1,30=1,71=1,74=-5/1,2,3;
 4//1;
 5/5=2,38=5/2;
 6/7=2,8=2,9=2,10=2,28=1/1;
 7//1,2,3,16;
 1/18=20,19=15,26=3/3(2);
 2/9=110/2;
 99//99;
 2/9=110/2;
 3/5=1,6=6,11=2,25=1,30=1,71=1,74=-5/1,2,3;
 4/5=5,16=3,69=1/1;
 5/5=2,38=5/2;
 7//1,2,3,16;
 1/18=20,19=15,26=3/3(-5);
 2/9=110/2;
 6/7=2,8=2,9=2,10=2,19=2,28=1/1;
 99/9=1/99;
 -------------------
 Title Card Required
 -------------------
 Symbolic Z-matrix:
 Charge =  0 Multiplicity = 1
 C                    -6.13208   0.15709   0.00008 
 H                    -5.77689  -0.85224   0.00108 
 H                    -5.77394   0.66036  -0.87362 
 H                    -7.20207   0.15866  -0.00082 
 C                    -5.61873   0.88317   1.25741 
 H                    -5.97392   1.8925    1.25642 
 H                    -5.97687   0.3799    2.13112 
 C                    -4.07874   0.88091   1.25871 
 H                    -3.7206    1.38419   0.38501 
 H                    -3.72355  -0.12841   1.25971 
 C                    -3.56539   1.607     2.51604 
 H                    -3.92353   1.10372   3.38974 
 H                    -3.92058   2.61632   2.51504 
 C                    -2.02539   1.60474   2.51733 
 H                    -1.66726   2.10801   1.64363 
 H                    -1.66872   2.10922   3.39093 
 H                    -1.67021   0.59541   2.51833 
 

 GradGradGradGradGradGradGradGradGradGradGradGradGradGradGradGradGradGrad
 Berny optimization.
 Initialization pass.
                           ----------------------------
                           !    Initial Parameters    !
                           ! (Angstroms and Degrees)  !
 --------------------------                            --------------------------
 ! Name  Definition              Value          Derivative Info.                !
 --------------------------------------------------------------------------------
 ! R1    R(1,2)                  1.07           estimate D2E/DX2                !
 ! R2    R(1,3)                  1.07           estimate D2E/DX2                !
 ! R3    R(1,4)                  1.07           estimate D2E/DX2                !
 ! R4    R(1,5)                  1.54           estimate D2E/DX2                !
 ! R5    R(5,6)                  1.07           estimate D2E/DX2                !
 ! R6    R(5,7)                  1.07           estimate D2E/DX2                !
 ! R7    R(5,8)                  1.54           estimate D2E/DX2                !
 ! R8    R(8,9)                  1.07           estimate D2E/DX2                !
 ! R9    R(8,10)                 1.07           estimate D2E/DX2                !
 ! R10   R(8,11)                 1.54           estimate D2E/DX2                !
 ! R11   R(11,12)                1.07           estimate D2E/DX2                !
 ! R12   R(11,13)                1.07           estimate D2E/DX2                !
 ! R13   R(11,14)                1.54           estimate D2E/DX2                !
 ! R14   R(14,15)                1.07           estimate D2E/DX2                !
 ! R15   R(14,16)                1.07           estimate D2E/DX2                !
 ! R16   R(14,17)                1.07           estimate D2E/DX2                !
 ! A1    A(2,1,3)              109.4712         estimate D2E/DX2                !
 ! A2    A(2,1,4)              109.4712         estimate D2E/DX2                !
 ! A3    A(2,1,5)              109.4712         estimate D2E/DX2                !
 ! A4    A(3,1,4)              109.4712         estimate D2E/DX2                !
 ! A5    A(3,1,5)              109.4712         estimate D2E/DX2                !
 ! A6    A(4,1,5)              109.4712         estimate D2E/DX2                !
 ! A7    A(1,5,6)              109.4712         estimate D2E/DX2                !
 ! A8    A(1,5,7)              109.4712         estimate D2E/DX2                !
 ! A9    A(1,5,8)              109.4712         estimate D2E/DX2                !
 ! A10   A(6,5,7)              109.4712         estimate D2E/DX2                !
 ! A11   A(6,5,8)              109.4712         estimate D2E/DX2                !
 ! A12   A(7,5,8)              109.4712         estimate D2E/DX2                !
 ! A13   A(5,8,9)              109.4712         estimate D2E/DX2                !
 ! A14   A(5,8,10)             109.4712         estimate D2E/DX2                !
 ! A15   A(5,8,11)             109.4712         estimate D2E/DX2                !
 ! A16   A(9,8,10)             109.4712         estimate D2E/DX2                !
 ! A17   A(9,8,11)             109.4712         estimate D2E/DX2                !
 ! A18   A(10,8,11)            109.4712         estimate D2E/DX2                !
 ! A19   A(8,11,12)            109.4712         estimate D2E/DX2                !
 ! A20   A(8,11,13)            109.4712         estimate D2E/DX2                !
 ! A21   A(8,11,14)            109.4712         estimate D2E/DX2                !
 ! A22   A(12,11,13)           109.4712         estimate D2E/DX2                !
 ! A23   A(12,11,14)           109.4712         estimate D2E/DX2                !
 ! A24   A(13,11,14)           109.4712         estimate D2E/DX2                !
 ! A25   A(11,14,15)           109.4712         estimate D2E/DX2                !
 ! A26   A(11,14,16)           109.4712         estimate D2E/DX2                !
 ! A27   A(11,14,17)           109.4712         estimate D2E/DX2                !
 ! A28   A(15,14,16)           109.4712         estimate D2E/DX2                !
 ! A29   A(15,14,17)           109.4712         estimate D2E/DX2                !
 ! A30   A(16,14,17)           109.4712         estimate D2E/DX2                !
 ! D1    D(2,1,5,6)            180.0            estimate D2E/DX2                !
 ! D2    D(2,1,5,7)            -60.0            estimate D2E/DX2                !
 ! D3    D(2,1,5,8)             60.0            estimate D2E/DX2                !
 ! D4    D(3,1,5,6)             60.0            estimate D2E/DX2                !
 ! D5    D(3,1,5,7)            180.0            estimate D2E/DX2                !
 ! D6    D(3,1,5,8)            -60.0            estimate D2E/DX2                !
 ! D7    D(4,1,5,6)            -60.0            estimate D2E/DX2                !
 ! D8    D(4,1,5,7)             60.0            estimate D2E/DX2                !
 ! D9    D(4,1,5,8)            180.0            estimate D2E/DX2                !
 ! D10   D(1,5,8,9)             60.0            estimate D2E/DX2                !
 ! D11   D(1,5,8,10)           -60.0            estimate D2E/DX2                !
 ! D12   D(1,5,8,11)           180.0            estimate D2E/DX2                !
 ! D13   D(6,5,8,9)            -60.0            estimate D2E/DX2                !
 ! D14   D(6,5,8,10)           180.0            estimate D2E/DX2                !
 ! D15   D(6,5,8,11)            60.0            estimate D2E/DX2                !
 ! D16   D(7,5,8,9)           -180.0            estimate D2E/DX2                !
 ! D17   D(7,5,8,10)            60.0            estimate D2E/DX2                !
 ! D18   D(7,5,8,11)           -60.0            estimate D2E/DX2                !
 ! D19   D(5,8,11,12)           60.0            estimate D2E/DX2                !
 ! D20   D(5,8,11,13)          -60.0            estimate D2E/DX2                !
 ! D21   D(5,8,11,14)          180.0            estimate D2E/DX2                !
 ! D22   D(9,8,11,12)          180.0            estimate D2E/DX2                !
 ! D23   D(9,8,11,13)           60.0            estimate D2E/DX2                !
 ! D24   D(9,8,11,14)          -60.0            estimate D2E/DX2                !
 ! D25   D(10,8,11,12)         -60.0            estimate D2E/DX2                !
 ! D26   D(10,8,11,13)         180.0            estimate D2E/DX2                !
 ! D27   D(10,8,11,14)          60.0            estimate D2E/DX2                !
 ! D28   D(8,11,14,15)          60.0            estimate D2E/DX2                !
 ! D29   D(8,11,14,16)         180.0            estimate D2E/DX2                !
 ! D30   D(8,11,14,17)         -60.0            estimate D2E/DX2                !
 ! D31   D(12,11,14,15)        180.0            estimate D2E/DX2                !
 ! D32   D(12,11,14,16)        -60.0            estimate D2E/DX2                !
 ! D33   D(12,11,14,17)         60.0            estimate D2E/DX2                !
 ! D34   D(13,11,14,15)        -60.0            estimate D2E/DX2                !
 ! D35   D(13,11,14,16)         60.0            estimate D2E/DX2                !
 ! D36   D(13,11,14,17)        180.0            estimate D2E/DX2                !
 --------------------------------------------------------------------------------
 Trust Radius=3.00D-01 FncErr=1.00D-07 GrdErr=1.00D-06 EigMax=2.50D+02 EigMin=1.00D-04
 Number of steps in this run=     92 maximum allowed number of steps=    102.
 GradGradGradGradGradGradGradGradGradGradGradGradGradGradGradGradGradGrad

                          Input orientation:                          
 ---------------------------------------------------------------------
 Center     Atomic      Atomic             Coordinates (Angstroms)
 Number     Number       Type             X           Y           Z
 ---------------------------------------------------------------------
      1          6           0       -6.132076    0.157090    0.000082
      2          1           0       -5.776889   -0.852237    0.001080
      3          1           0       -5.773938    0.660364   -0.873618
      4          1           0       -7.202074    0.158658   -0.000816
      5          6           0       -5.618733    0.883171    1.257415
      6          1           0       -5.973920    1.892498    1.256417
      7          1           0       -5.976871    0.379897    2.131115
      8          6           0       -4.078735    0.880914    1.258708
      9          1           0       -3.720597    1.384188    0.385007
     10          1           0       -3.723548   -0.128413    1.259705
     11          6           0       -3.565393    1.606996    2.516040
     12          1           0       -3.923531    1.103722    3.389741
     13          1           0       -3.920580    2.616323    2.515043
     14          6           0       -2.025395    1.604739    2.517333
     15          1           0       -1.667257    2.108012    1.643632
     16          1           0       -1.668722    2.109224    3.390934
     17          1           0       -1.670208    0.595412    2.518331
 ---------------------------------------------------------------------
                    Distance matrix (angstroms):
                    1          2          3          4          5
     1  C    0.000000
     2  H    1.070000   0.000000
     3  H    1.070000   1.747303   0.000000
     4  H    1.070000   1.747303   1.747303   0.000000
     5  C    1.540000   2.148263   2.148263   2.148263   0.000000
     6  H    2.148263   3.024610   2.468846   2.468846   1.070000
     7  H    2.148263   2.468846   3.024610   2.468846   1.070000
     8  C    2.514809   2.732978   2.732978   3.444314   1.540000
     9  H    2.732978   3.062243   2.514809   3.710993   2.148263
    10  H    2.732978   2.514809   3.062243   3.710993   2.148263
    11  C    3.875582   4.154945   4.154945   4.653783   2.514809
    12  H    4.154945   4.329403   4.668704   4.810184   2.732978
    13  H    4.154945   4.668704   4.329403   4.810184   2.732978
    14  C    5.029619   5.142175   5.142175   5.935506   3.875582
    15  H    5.142175   5.324484   5.029619   6.094128   4.154945
    16  H    5.935506   6.094128   6.094128   6.776922   4.653783
    17  H    5.142175   5.029619   5.324484   6.094128   4.154945
                    6          7          8          9         10
     6  H    0.000000
     7  H    1.747303   0.000000
     8  C    2.148263   2.148263   0.000000
     9  H    2.468846   3.024610   1.070000   0.000000
    10  H    3.024610   2.468846   1.070000   1.747303   0.000000
    11  C    2.732978   2.732978   1.540000   2.148263   2.148263
    12  H    3.062243   2.514809   2.148263   3.024610   2.468846
    13  H    2.514809   3.062243   2.148263   2.468846   3.024610
    14  C    4.154945   4.154945   2.514809   2.732978   2.732978
    15  H    4.329403   4.668704   2.732978   2.514809   3.062243
    16  H    4.810184   4.810184   3.444314   3.710993   3.710993
    17  H    4.668704   4.329403   2.732978   3.062243   2.514809
                   11         12         13         14         15
    11  C    0.000000
    12  H    1.070000   0.000000
    13  H    1.070000   1.747303   0.000000
    14  C    1.540000   2.148263   2.148263   0.000000
    15  H    2.148263   3.024610   2.468846   1.070000   0.000000
    16  H    2.148263   2.468846   2.468846   1.070000   1.747303
    17  H    2.148263   2.468846   3.024610   1.070000   1.747303
                   16         17
    16  H    0.000000
    17  H    1.747303   0.000000
 Stoichiometry    C5H12
 Framework group  C2V[C2(C),SGV(C4H2),SGV'(H2),X(H8)]
 Deg. of freedom    14
 Full point group                 C2V     NOp   4
 Largest Abelian subgroup         C2V     NOp   4
 Largest concise Abelian subgroup C2V     NOp   4
                         Standard orientation:                         
 ---------------------------------------------------------------------
 Center     Atomic      Atomic             Coordinates (Angstroms)
 Number     Number       Type             X           Y           Z
 ---------------------------------------------------------------------
      1          6           0        0.000000   -2.514809    0.338712
      2          1           0       -0.873651   -2.514809    0.956477
      3          1           0        0.873651   -2.514809    0.956477
      4          1           0        0.000000   -3.388461   -0.279053
      5          6           0        0.000000   -1.257405   -0.550407
      6          1           0        0.873651   -1.257405   -1.168172
      7          1           0       -0.873651   -1.257405   -1.168172
      8          6           0        0.000000    0.000000    0.338712
      9          1           0        0.873651    0.000000    0.956477
     10          1           0       -0.873651    0.000000    0.956477
     11          6           0        0.000000    1.257405   -0.550407
     12          1           0       -0.873651    1.257405   -1.168172
     13          1           0        0.873651    1.257405   -1.168172
     14          6           0        0.000000    2.514809    0.338712
     15          1           0        0.873651    2.514809    0.956477
     16          1           0        0.000000    3.388461   -0.279053
     17          1           0       -0.873651    2.514809    0.956477
 ---------------------------------------------------------------------
 Rotational constants (GHZ):          16.6902061           2.0020387           1.8904873
 Standard basis: 6-31G (6D, 7F)
 There are    27 symmetry adapted cartesian basis functions of A1  symmetry.
 There are     8 symmetry adapted cartesian basis functions of A2  symmetry.
 There are    12 symmetry adapted cartesian basis functions of B1  symmetry.
 There are    22 symmetry adapted cartesian basis functions of B2  symmetry.
 There are    27 symmetry adapted basis functions of A1  symmetry.
 There are     8 symmetry adapted basis functions of A2  symmetry.
 There are    12 symmetry adapted basis functions of B1  symmetry.
 There are    22 symmetry adapted basis functions of B2  symmetry.
    69 basis functions,   158 primitive gaussians,    69 cartesian basis functions
    21 alpha electrons       21 beta electrons
       nuclear repulsion energy       186.6240187785 Hartrees.
 NAtoms=   17 NActive=   17 NUniq=    7 SFac= 4.00D+00 NAtFMM=   60 NAOKFM=F Big=F
 Integral buffers will be    131072 words long.
 Raffenetti 2 integral format.
 Two-electron integral symmetry is turned on.
 One-electron integrals computed using PRISM.
 NBasis=    69 RedAO= T EigKep=  4.62D-03  NBF=    27     8    12    22
 NBsUse=    69 1.00D-06 EigRej= -1.00D+00 NBFU=    27     8    12    22
 ExpMin= 1.61D-01 ExpMax= 3.05D+03 ExpMxC= 4.57D+02 IAcc=3 IRadAn=         5 AccDes= 0.00D+00
 Harris functional with IExCor=  402 and IRadAn=       5 diagonalized for initial guess.
 HarFok:  IExCor=  402 AccDes= 0.00D+00 IRadAn=         5 IDoV= 1 UseB2=F ITyADJ=14
 ICtDFT=  3500011 ScaDFX=  1.000000  1.000000  1.000000  1.000000
 FoFCou: FMM=F IPFlag=           0 FMFlag=      100000 FMFlg1=           0
         NFxFlg=           0 DoJE=T BraDBF=F KetDBF=T FulRan=T
         wScrn=  0.000000 ICntrl=       500 IOpCl=  0 I1Cent=   200000004 NGrid=           0
         NMat0=    1 NMatS0=      1 NMatT0=    0 NMatD0=    1 NMtDS0=    0 NMtDT0=    0
 Petite list used in FoFCou.
 Initial guess orbital symmetries:
       Occupied  (B2) (A1) (A1) (B2) (A1) (A1) (B2) (A1) (B2) (A1)
                 (B1) (B2) (A2) (A1) (A1) (B1) (B2) (A2) (A1) (B2)
                 (B1)
       Virtual   (A1) (B2) (B1) (A1) (A1) (A1) (A2) (B2) (B2) (A1)
                 (B1) (A2) (B2) (B2) (B1) (A1) (A1) (A1) (B2) (A2)
                 (B1) (B2) (B1) (B2) (A1) (A1) (A2) (A1) (B2) (B1)
                 (A1) (B1) (B2) (A2) (A1) (A1) (B2) (B1) (B2) (A1)
                 (A2) (B2) (A1) (B1) (B2) (A1) (B2) (A1)
 The electronic state of the initial guess is 1-A1.
 Keep R1 ints in memory in symmetry-blocked form, NReq=3819142.
 Requested convergence on RMS density matrix=1.00D-08 within 128 cycles.
 Requested convergence on MAX density matrix=1.00D-06.
 Requested convergence on             energy=1.00D-06.
 No special actions if energy rises.
 Integral accuracy reduced to 1.0D-05 until final iterations.
 Initial convergence to 1.0D-05 achieved.  Increase integral accuracy.
 SCF Done:  E(RB3LYP) =  -197.715911067     A.U. after   11 cycles
            NFock= 11  Conv=0.39D-08     -V/T= 2.0036

 **********************************************************************

            Population analysis using the SCF Density.

 **********************************************************************

 Orbital symmetries:
       Occupied  (B2) (A1) (A1) (B2) (A1) (A1) (B2) (A1) (B2) (A1)
                 (B1) (A2) (B2) (A1) (A1) (B1) (B2) (A2) (B1) (A1)
                 (B2)
       Virtual   (A1) (B2) (B1) (A1) (A1) (B2) (A2) (A1) (B1) (B2)
                 (A2) (B1) (A1) (B2) (B2) (A1) (A1) (A1) (B2) (A2)
                 (B1) (B1) (B2) (B2) (A1) (A1) (A2) (A1) (B2) (B1)
                 (B1) (A1) (B2) (A2) (A1) (A1) (B2) (B1) (B2) (B2)
                 (A1) (A2) (A1) (B1) (B2) (A1) (B2) (A1)
 The electronic state is 1-A1.
 Alpha  occ. eigenvalues --  -10.16197 -10.16196 -10.15991 -10.15337 -10.15336
 Alpha  occ. eigenvalues --   -0.80139  -0.74976  -0.67428  -0.59790  -0.57986
 Alpha  occ. eigenvalues --   -0.48132  -0.43609  -0.43581  -0.39862  -0.38766
 Alpha  occ. eigenvalues --   -0.38029  -0.34892  -0.33962  -0.32856  -0.32536
 Alpha  occ. eigenvalues --   -0.29539
 Alpha virt. eigenvalues --    0.09399   0.11428   0.13458   0.14337   0.16371
 Alpha virt. eigenvalues --    0.18409   0.18502   0.18637   0.19976   0.20834
 Alpha virt. eigenvalues --    0.21192   0.22536   0.23188   0.24969   0.27115
 Alpha virt. eigenvalues --    0.27565   0.51923   0.53703   0.55355   0.56803
 Alpha virt. eigenvalues --    0.58158   0.61158   0.61183   0.66210   0.67064
 Alpha virt. eigenvalues --    0.70048   0.73389   0.76229   0.80174   0.83519
 Alpha virt. eigenvalues --    0.91271   0.92056   0.94333   0.96612   0.97173
 Alpha virt. eigenvalues --    0.98874   1.01330   1.01670   1.03389   1.04173
 Alpha virt. eigenvalues --    1.04229   1.04895   1.06383   1.28417   1.36127
 Alpha virt. eigenvalues --    1.45761   1.51158   1.77384
          Condensed to atoms (all electrons):
               1          2          3          4          5          6
     1  C    5.079484   0.382103   0.382103   0.369698   0.328873  -0.041773
     2  H    0.382103   0.592522  -0.034023  -0.032562  -0.039279   0.005720
     3  H    0.382103  -0.034023   0.592522  -0.032562  -0.039279  -0.005141
     4  H    0.369698  -0.032562  -0.032562   0.600903  -0.032865  -0.002714
     5  C    0.328873  -0.039279  -0.039279  -0.032865   5.049492   0.383654
     6  H   -0.041773   0.005720  -0.005141  -0.002714   0.383654   0.618909
     7  H   -0.041773  -0.005141   0.005720  -0.002714   0.383654  -0.040384
     8  C   -0.053856  -0.005362  -0.005362   0.005364   0.341690  -0.042975
     9  H   -0.003090  -0.000622   0.005525   0.000016  -0.043563  -0.006117
    10  H   -0.003090   0.005525  -0.000622   0.000016  -0.043563   0.006193
    11  C    0.005557   0.000077   0.000077  -0.000236  -0.046549  -0.003671
    12  H    0.000060   0.000001   0.000008   0.000003  -0.003671  -0.000639
    13  H    0.000060   0.000008   0.000001   0.000003  -0.003671   0.005383
    14  C   -0.000248   0.000000   0.000000   0.000003   0.005557   0.000060
    15  H    0.000000   0.000001  -0.000002   0.000000   0.000077   0.000001
    16  H    0.000003   0.000000   0.000000   0.000000  -0.000236   0.000003
    17  H    0.000000  -0.000002   0.000001   0.000000   0.000077   0.000008
               7          8          9         10         11         12
     1  C   -0.041773  -0.053856  -0.003090  -0.003090   0.005557   0.000060
     2  H   -0.005141  -0.005362  -0.000622   0.005525   0.000077   0.000001
     3  H    0.005720  -0.005362   0.005525  -0.000622   0.000077   0.000008
     4  H   -0.002714   0.005364   0.000016   0.000016  -0.000236   0.000003
     5  C    0.383654   0.341690  -0.043563  -0.043563  -0.046549  -0.003671
     6  H   -0.040384  -0.042975  -0.006117   0.006193  -0.003671  -0.000639
     7  H    0.618909  -0.042975   0.006193  -0.006117  -0.003671   0.005383
     8  C   -0.042975   5.068453   0.381372   0.381372   0.341690  -0.042975
     9  H    0.006193   0.381372   0.623632  -0.041638  -0.043563   0.006193
    10  H   -0.006117   0.381372  -0.041638   0.623632  -0.043563  -0.006117
    11  C   -0.003671   0.341690  -0.043563  -0.043563   5.049492   0.383654
    12  H    0.005383  -0.042975   0.006193  -0.006117   0.383654   0.618909
    13  H   -0.000639  -0.042975  -0.006117   0.006193   0.383654  -0.040384
    14  C    0.000060  -0.053856  -0.003090  -0.003090   0.328873  -0.041773
    15  H    0.000008  -0.005362   0.005525  -0.000622  -0.039279   0.005720
    16  H    0.000003   0.005364   0.000016   0.000016  -0.032865  -0.002714
    17  H    0.000001  -0.005362  -0.000622   0.005525  -0.039279  -0.005141
              13         14         15         16         17
     1  C    0.000060  -0.000248   0.000000   0.000003   0.000000
     2  H    0.000008   0.000000   0.000001   0.000000  -0.000002
     3  H    0.000001   0.000000  -0.000002   0.000000   0.000001
     4  H    0.000003   0.000003   0.000000   0.000000   0.000000
     5  C   -0.003671   0.005557   0.000077  -0.000236   0.000077
     6  H    0.005383   0.000060   0.000001   0.000003   0.000008
     7  H   -0.000639   0.000060   0.000008   0.000003   0.000001
     8  C   -0.042975  -0.053856  -0.005362   0.005364  -0.005362
     9  H   -0.006117  -0.003090   0.005525   0.000016  -0.000622
    10  H    0.006193  -0.003090  -0.000622   0.000016   0.005525
    11  C    0.383654   0.328873  -0.039279  -0.032865  -0.039279
    12  H   -0.040384  -0.041773   0.005720  -0.002714  -0.005141
    13  H    0.618909  -0.041773  -0.005141  -0.002714   0.005720
    14  C   -0.041773   5.079484   0.382103   0.369698   0.382103
    15  H   -0.005141   0.382103   0.592522  -0.032562  -0.034023
    16  H   -0.002714   0.369698  -0.032562   0.600903  -0.032562
    17  H    0.005720   0.382103  -0.034023  -0.032562   0.592522
 Mulliken charges:
               1
     1  C   -0.404112
     2  H    0.131035
     3  H    0.131035
     4  H    0.127647
     5  C   -0.240399
     6  H    0.123483
     7  H    0.123483
     8  C   -0.224245
     9  H    0.119949
    10  H    0.119949
    11  C   -0.240399
    12  H    0.123483
    13  H    0.123483
    14  C   -0.404112
    15  H    0.131035
    16  H    0.127647
    17  H    0.131035
 Sum of Mulliken charges =   0.00000
 Mulliken charges with hydrogens summed into heavy atoms:
               1
     1  C   -0.014394
     5  C    0.006567
     8  C    0.015654
    11  C    0.006567
    14  C   -0.014394
 Electronic spatial extent (au):  <R**2>=            698.9239
 Charge=              0.0000 electrons
 Dipole moment (field-independent basis, Debye):
    X=              0.0000    Y=              0.0000    Z=             -0.0619  Tot=              0.0619
 Quadrupole moment (field-independent basis, Debye-Ang):
   XX=            -33.9112   YY=            -36.0125   ZZ=            -34.9471
   XY=              0.0000   XZ=              0.0000   YZ=              0.0000
 Traceless Quadrupole moment (field-independent basis, Debye-Ang):
   XX=              1.0457   YY=             -1.0556   ZZ=              0.0099
   XY=              0.0000   XZ=              0.0000   YZ=              0.0000
 Octapole moment (field-independent basis, Debye-Ang**2):
  XXX=              0.0000  YYY=              0.0000  ZZZ=             -0.0892  XYY=              0.0000
  XXY=              0.0000  XXZ=              0.3654  XZZ=              0.0000  YZZ=              0.0000
  YYZ=             -2.4636  XYZ=              0.0000
 Hexadecapole moment (field-independent basis, Debye-Ang**3):
 XXXX=            -67.9164 YYYY=           -793.8913 ZZZZ=           -118.8715 XXXY=              0.0000
 XXXZ=              0.0000 YYYX=              0.0000 YYYZ=              0.0000 ZZZX=              0.0000
 ZZZY=              0.0000 XXYY=           -140.5517 XXZZ=            -28.5573 YYZZ=           -149.5954
 XXYZ=              0.0000 YYXZ=              0.0000 ZZXY=              0.0000
 N-N= 1.866240187785D+02 E-N=-8.304962173682D+02  KE= 1.970008289751D+02
 Symmetry A1   KE= 1.104482445589D+02
 Symmetry A2   KE= 4.085430801163D+00
 Symmetry B1   KE= 5.911800972520D+00
 Symmetry B2   KE= 7.655535264253D+01
 Calling FoFJK, ICntrl=      2127 FMM=F ISym2X=1 I1Cent= 0 IOpClX= 0 NMat=1 NMatS=1 NMatT=0.
 ***** Axes restored to original set *****
 -------------------------------------------------------------------
 Center     Atomic                   Forces (Hartrees/Bohr)
 Number     Number              X              Y              Z
 -------------------------------------------------------------------
      1        6           0.000111817    0.012013299    0.020774775
      2        1           0.004399044   -0.017591348   -0.002961590
      3        1           0.004445451    0.006194767   -0.016716488
      4        1          -0.018390326   -0.002659130   -0.004660435
      5        6           0.017446819   -0.016582449   -0.028616889
      6        1          -0.007365810    0.017680314    0.003100645
      7        1          -0.007412226   -0.006109947    0.016857940
      8        6          -0.024559040    0.017422883    0.030046243
      9        1           0.007906335    0.006774077   -0.016794228
     10        1           0.007858083   -0.017957804   -0.002492418
     11        6           0.025366628   -0.013790631   -0.023762326
     12        1          -0.008435266   -0.006470580    0.016230852
     13        1          -0.008388851    0.017319681    0.002473557
     14        6          -0.022662791    0.003985006    0.006814743
     15        1           0.009268744    0.007895029   -0.013759980
     16        1           0.011189053    0.007767918    0.013470681
     17        1           0.009222337   -0.015891086   -0.000005082
 -------------------------------------------------------------------
 Cartesian Forces:  Max     0.030046243 RMS     0.014092801

 GradGradGradGradGradGradGradGradGradGradGradGradGradGradGradGradGradGrad
 Berny optimization.
 FormGI is forming the generalized inverse of G from B-inverse, IUseBI=4.
 Internal  Forces:  Max     0.019545702 RMS     0.008102690
 Search for a local minimum.
 Step number   1 out of a maximum of   92
 All quantities printed in internal units (Hartrees-Bohrs-Radians)
 Mixed Optimization -- RFO/linear search
 Second derivative matrix not updated -- first step.
 ITU=  0
     Eigenvalues ---    0.00237   0.00237   0.00237   0.00237   0.03840
     Eigenvalues ---    0.03840   0.03840   0.04896   0.04896   0.04896
     Eigenvalues ---    0.05720   0.05720   0.05720   0.05720   0.07655
     Eigenvalues ---    0.07655   0.07655   0.11701   0.11701   0.11701
     Eigenvalues ---    0.16000   0.16000   0.16000   0.16000   0.16000
     Eigenvalues ---    0.16000   0.21948   0.21948   0.21948   0.28519
     Eigenvalues ---    0.28519   0.28519   0.28519   0.37230   0.37230
     Eigenvalues ---    0.37230   0.37230   0.37230   0.37230   0.37230
     Eigenvalues ---    0.37230   0.37230   0.37230   0.37230   0.37230
 RFO step:  Lambda=-1.71198667D-02 EMin= 2.36824190D-03
 Linear search not attempted -- first point.
 Iteration  1 RMS(Cart)=  0.06227790 RMS(Int)=  0.00064841
 Iteration  2 RMS(Cart)=  0.00075100 RMS(Int)=  0.00022295
 Iteration  3 RMS(Cart)=  0.00000040 RMS(Int)=  0.00022295
 ClnCor:  largest displacement from symmetrization is 1.04D-08 for atom     7.
 Variable       Old X    -DE/DX   Delta X   Delta X   Delta X     New X
                                 (Linear)    (Quad)   (Total)
    R1        2.02201   0.01805   0.00000   0.04635   0.04635   2.06836
    R2        2.02201   0.01805   0.00000   0.04635   0.04635   2.06836
    R3        2.02201   0.01839   0.00000   0.04722   0.04722   2.06923
    R4        2.91018   0.00702   0.00000   0.02321   0.02321   2.93339
    R5        2.02201   0.01912   0.00000   0.04910   0.04910   2.07111
    R6        2.02201   0.01912   0.00000   0.04910   0.04910   2.07111
    R7        2.91018   0.00677   0.00000   0.02238   0.02238   2.93256
    R8        2.02201   0.01955   0.00000   0.05019   0.05019   2.07220
    R9        2.02201   0.01955   0.00000   0.05019   0.05019   2.07220
   R10        2.91018   0.00677   0.00000   0.02238   0.02238   2.93256
   R11        2.02201   0.01912   0.00000   0.04910   0.04910   2.07111
   R12        2.02201   0.01912   0.00000   0.04910   0.04910   2.07111
   R13        2.91018   0.00702   0.00000   0.02321   0.02321   2.93339
   R14        2.02201   0.01805   0.00000   0.04635   0.04635   2.06836
   R15        2.02201   0.01839   0.00000   0.04722   0.04722   2.06923
   R16        2.02201   0.01805   0.00000   0.04635   0.04635   2.06836
    A1        1.91063  -0.00345   0.00000  -0.02240  -0.02247   1.88817
    A2        1.91063  -0.00445   0.00000  -0.02366  -0.02404   1.88660
    A3        1.91063   0.00298   0.00000   0.01606   0.01583   1.92646
    A4        1.91063  -0.00445   0.00000  -0.02366  -0.02404   1.88660
    A5        1.91063   0.00298   0.00000   0.01606   0.01583   1.92646
    A6        1.91063   0.00640   0.00000   0.03760   0.03720   1.94783
    A7        1.91063  -0.00277   0.00000  -0.00410  -0.00431   1.90632
    A8        1.91063  -0.00277   0.00000  -0.00410  -0.00431   1.90632
    A9        1.91063   0.01227   0.00000   0.06163   0.06124   1.97187
   A10        1.91063   0.00019   0.00000  -0.03053  -0.03086   1.87978
   A11        1.91063  -0.00346   0.00000  -0.01145  -0.01196   1.89868
   A12        1.91063  -0.00346   0.00000  -0.01145  -0.01196   1.89868
   A13        1.91063  -0.00378   0.00000  -0.01049  -0.01088   1.89975
   A14        1.91063  -0.00378   0.00000  -0.01049  -0.01088   1.89975
   A15        1.91063   0.01442   0.00000   0.07089   0.07050   1.98113
   A16        1.91063   0.00071   0.00000  -0.02895  -0.02937   1.88126
   A17        1.91063  -0.00378   0.00000  -0.01049  -0.01088   1.89975
   A18        1.91063  -0.00378   0.00000  -0.01049  -0.01088   1.89975
   A19        1.91063  -0.00346   0.00000  -0.01145  -0.01196   1.89868
   A20        1.91063  -0.00346   0.00000  -0.01145  -0.01196   1.89868
   A21        1.91063   0.01227   0.00000   0.06163   0.06124   1.97187
   A22        1.91063   0.00019   0.00000  -0.03053  -0.03086   1.87978
   A23        1.91063  -0.00277   0.00000  -0.00410  -0.00431   1.90632
   A24        1.91063  -0.00277   0.00000  -0.00410  -0.00431   1.90632
   A25        1.91063   0.00298   0.00000   0.01606   0.01583   1.92646
   A26        1.91063   0.00640   0.00000   0.03760   0.03720   1.94783
   A27        1.91063   0.00298   0.00000   0.01606   0.01583   1.92646
   A28        1.91063  -0.00445   0.00000  -0.02366  -0.02404   1.88660
   A29        1.91063  -0.00345   0.00000  -0.02240  -0.02247   1.88817
   A30        1.91063  -0.00445   0.00000  -0.02366  -0.02404   1.88660
    D1        3.14159   0.00129   0.00000   0.01732   0.01733  -3.12426
    D2       -1.04720  -0.00187   0.00000  -0.02509  -0.02527  -1.07246
    D3        1.04720  -0.00029   0.00000  -0.00388  -0.00397   1.04323
    D4        1.04720   0.00187   0.00000   0.02509   0.02527   1.07246
    D5        3.14159  -0.00129   0.00000  -0.01732  -0.01733   3.12426
    D6       -1.04720   0.00029   0.00000   0.00388   0.00397  -1.04323
    D7       -1.04720   0.00158   0.00000   0.02121   0.02130  -1.02590
    D8        1.04720  -0.00158   0.00000  -0.02121  -0.02130   1.02590
    D9        3.14159   0.00000   0.00000   0.00000   0.00000   3.14159
   D10        1.04720  -0.00188   0.00000  -0.02415  -0.02414   1.02306
   D11       -1.04720   0.00188   0.00000   0.02415   0.02414  -1.02306
   D12        3.14159   0.00000   0.00000   0.00000   0.00000   3.14159
   D13       -1.04720  -0.00388   0.00000  -0.04986  -0.04976  -1.09696
   D14       -3.14159  -0.00012   0.00000  -0.00156  -0.00148   3.14011
   D15        1.04720  -0.00200   0.00000  -0.02571  -0.02562   1.02157
   D16        3.14159   0.00012   0.00000   0.00156   0.00148  -3.14011
   D17        1.04720   0.00388   0.00000   0.04986   0.04976   1.09696
   D18       -1.04720   0.00200   0.00000   0.02571   0.02562  -1.02157
   D19        1.04720  -0.00200   0.00000  -0.02571  -0.02562   1.02157
   D20       -1.04720   0.00200   0.00000   0.02571   0.02562  -1.02157
   D21        3.14159   0.00000   0.00000   0.00000   0.00000  -3.14159
   D22       -3.14159  -0.00012   0.00000  -0.00156  -0.00148   3.14011
   D23        1.04720   0.00388   0.00000   0.04986   0.04976   1.09696
   D24       -1.04720   0.00188   0.00000   0.02415   0.02414  -1.02306
   D25       -1.04720  -0.00388   0.00000  -0.04986  -0.04976  -1.09696
   D26        3.14159   0.00012   0.00000   0.00156   0.00148  -3.14011
   D27        1.04720  -0.00188   0.00000  -0.02415  -0.02414   1.02306
   D28        1.04720  -0.00029   0.00000  -0.00388  -0.00397   1.04323
   D29        3.14159   0.00000   0.00000   0.00000   0.00000   3.14159
   D30       -1.04720   0.00029   0.00000   0.00388   0.00397  -1.04323
   D31        3.14159   0.00129   0.00000   0.01732   0.01733  -3.12426
   D32       -1.04720   0.00158   0.00000   0.02121   0.02130  -1.02590
   D33        1.04720   0.00187   0.00000   0.02509   0.02527   1.07246
   D34       -1.04720  -0.00187   0.00000  -0.02509  -0.02527  -1.07246
   D35        1.04720  -0.00158   0.00000  -0.02121  -0.02130   1.02590
   D36        3.14159  -0.00129   0.00000  -0.01732  -0.01733   3.12426
         Item               Value     Threshold  Converged?
 Maximum Force            0.019546     0.000450     NO 
 RMS     Force            0.008103     0.000300     NO 
 Maximum Displacement     0.175116     0.001800     NO 
 RMS     Displacement     0.061654     0.001200     NO 
 Predicted change in Energy=-9.197888D-03
 GradGradGradGradGradGradGradGradGradGradGradGradGradGradGradGradGradGrad

                          Input orientation:                          
 ---------------------------------------------------------------------
 Center     Atomic      Atomic             Coordinates (Angstroms)
 Number     Number       Type             X           Y           Z
 ---------------------------------------------------------------------
      1          6           0       -6.196970    0.139527   -0.030507
      2          1           0       -5.852457   -0.899092   -0.054483
      3          1           0       -5.849462    0.635798   -0.942071
      4          1           0       -7.291890    0.134990   -0.042048
      5          6           0       -5.641670    0.864365    1.224816
      6          1           0       -6.011988    1.895787    1.239312
      7          1           0       -6.014977    0.363543    2.125369
      8          6           0       -4.090794    0.889469    1.273461
      9          1           0       -3.716230    1.391746    0.373536
     10          1           0       -3.719223   -0.142138    1.260541
     11          6           0       -3.522265    1.611478    2.523937
     12          1           0       -3.898445    1.109643    3.422728
     13          1           0       -3.895456    2.641887    2.536671
     14          6           0       -1.970508    1.629401    2.560166
     15          1           0       -1.574589    2.142737    1.678276
     16          1           0       -1.593959    2.143571    3.450583
     17          1           0       -1.577584    0.607846    2.565863
 ---------------------------------------------------------------------
                    Distance matrix (angstroms):
                    1          2          3          4          5
     1  C    0.000000
     2  H    1.094530   0.000000
     3  H    1.094530   1.773051   0.000000
     4  H    1.094990   1.772413   1.772413   0.000000
     5  C    1.552283   2.188794   2.188794   2.204577   0.000000
     6  H    2.175110   3.083943   2.524364   2.525953   1.095982
     7  H    2.175110   2.524364   3.083943   2.525953   1.095982
     8  C    2.588189   2.840042   2.840042   3.542149   1.551842
     9  H    2.808091   3.161424   2.617815   3.812806   2.170283
    10  H    2.808091   2.617815   3.161424   3.812806   2.170283
    11  C    3.980687   4.287308   4.287308   4.793159   2.595722
    12  H    4.260185   4.465890   4.804422   4.946726   2.815992
    13  H    4.260185   4.804422   4.465890   4.946726   2.815992
    14  C    5.176320   5.319698   5.319698   6.109164   3.980687
    15  H    5.319698   5.527687   5.235610   6.299055   4.287308
    16  H    6.109164   6.299055   6.299055   6.978488   4.793159
    17  H    5.319698   5.235610   5.527687   6.299055   4.287308
                    6          7          8          9         10
     6  H    0.000000
     7  H    1.769994   0.000000
     8  C    2.169061   2.169061   0.000000
     9  H    2.504821   3.067631   1.096560   0.000000
    10  H    3.067631   2.504821   1.096560   1.771887   0.000000
    11  C    2.815992   2.815992   1.551842   2.170283   2.170283
    12  H    3.138852   2.592203   2.169061   3.067631   2.504821
    13  H    2.592203   3.138852   2.169061   2.504821   3.067631
    14  C    4.260185   4.260185   2.588189   2.808091   2.808091
    15  H    4.465890   4.804422   2.840042   2.617815   3.161424
    16  H    4.946726   4.946726   3.542149   3.812806   3.812806
    17  H    4.804422   4.465890   2.840042   3.161424   2.617815
                   11         12         13         14         15
    11  C    0.000000
    12  H    1.095982   0.000000
    13  H    1.095982   1.769994   0.000000
    14  C    1.552283   2.175110   2.175110   0.000000
    15  H    2.188794   3.083943   2.524364   1.094530   0.000000
    16  H    2.204577   2.525953   2.525953   1.094990   1.772413
    17  H    2.188794   2.524364   3.083943   1.094530   1.773051
                   16         17
    16  H    0.000000
    17  H    1.772413   0.000000
 Stoichiometry    C5H12
 Framework group  C2V[C2(C),SGV(C4H2),SGV'(H2),X(H8)]
 Deg. of freedom    14
 Full point group                 C2V     NOp   4
 Largest Abelian subgroup         C2V     NOp   4
 Largest concise Abelian subgroup C2V     NOp   4
                         Standard orientation:                         
 ---------------------------------------------------------------------
 Center     Atomic      Atomic             Coordinates (Angstroms)
 Number     Number       Type             X           Y           Z
 ---------------------------------------------------------------------
      1          6           0        0.000000   -2.588160    0.330432
      2          1           0       -0.886525   -2.617805    0.971672
      3          1           0        0.886525   -2.617805    0.971672
      4          1           0        0.000000   -3.489244   -0.291703
      5          6           0        0.000000   -1.297861   -0.532535
      6          1           0        0.884997   -1.296101   -1.179028
      7          1           0       -0.884997   -1.296101   -1.179028
      8          6           0        0.000000    0.000000    0.318212
      9          1           0        0.885944    0.000000    0.964392
     10          1           0       -0.885944    0.000000    0.964392
     11          6           0        0.000000    1.297861   -0.532535
     12          1           0       -0.884997    1.296101   -1.179028
     13          1           0        0.884997    1.296101   -1.179028
     14          6           0        0.000000    2.588160    0.330432
     15          1           0        0.886525    2.617805    0.971672
     16          1           0        0.000000    3.489244   -0.291703
     17          1           0       -0.886525    2.617805    0.971672
 ---------------------------------------------------------------------
 Rotational constants (GHZ):          16.8447357           1.8854715           1.7906943
 Standard basis: 6-31G (6D, 7F)
 There are    27 symmetry adapted cartesian basis functions of A1  symmetry.
 There are     8 symmetry adapted cartesian basis functions of A2  symmetry.
 There are    12 symmetry adapted cartesian basis functions of B1  symmetry.
 There are    22 symmetry adapted cartesian basis functions of B2  symmetry.
 There are    27 symmetry adapted basis functions of A1  symmetry.
 There are     8 symmetry adapted basis functions of A2  symmetry.
 There are    12 symmetry adapted basis functions of B1  symmetry.
 There are    22 symmetry adapted basis functions of B2  symmetry.
    69 basis functions,   158 primitive gaussians,    69 cartesian basis functions
    21 alpha electrons       21 beta electrons
       nuclear repulsion energy       182.9240277725 Hartrees.
 NAtoms=   17 NActive=   17 NUniq=    7 SFac= 4.00D+00 NAtFMM=   60 NAOKFM=F Big=F
 Integral buffers will be    131072 words long.
 Raffenetti 2 integral format.
 Two-electron integral symmetry is turned on.
 One-electron integrals computed using PRISM.
 NBasis=    69 RedAO= T EigKep=  5.28D-03  NBF=    27     8    12    22
 NBsUse=    69 1.00D-06 EigRej= -1.00D+00 NBFU=    27     8    12    22
 Initial guess from the checkpoint file:  "C:\Users\tkmeldrum\Documents\MDworking\C5H12.chk"
 B after Tr=     0.000000    0.000000    0.000000
         Rot=    1.000000    0.000000    0.000000    0.000000 Ang=   0.00 deg.
 Initial guess orbital symmetries:
       Occupied  (B2) (A1) (A1) (B2) (A1) (A1) (B2) (A1) (B2) (A1)
                 (B1) (A2) (B2) (A1) (A1) (B1) (B2) (A2) (B1) (A1)
                 (B2)
       Virtual   (A1) (B2) (B1) (A1) (A1) (B2) (A2) (A1) (B1) (B2)
                 (A2) (B1) (A1) (B2) (B2) (A1) (A1) (A1) (B2) (A2)
                 (B1) (B1) (B2) (B2) (A1) (A1) (A2) (A1) (B2) (B1)
                 (B1) (A1) (B2) (A2) (A1) (A1) (B2) (B1) (B2) (B2)
                 (A1) (A2) (A1) (B1) (B2) (A1) (B2) (A1)
 ExpMin= 1.61D-01 ExpMax= 3.05D+03 ExpMxC= 4.57D+02 IAcc=3 IRadAn=         5 AccDes= 0.00D+00
 Harris functional with IExCor=  402 and IRadAn=       5 diagonalized for initial guess.
 HarFok:  IExCor=  402 AccDes= 0.00D+00 IRadAn=         5 IDoV= 1 UseB2=F ITyADJ=14
 ICtDFT=  3500011 ScaDFX=  1.000000  1.000000  1.000000  1.000000
 FoFCou: FMM=F IPFlag=           0 FMFlag=      100000 FMFlg1=           0
         NFxFlg=           0 DoJE=T BraDBF=F KetDBF=T FulRan=T
         wScrn=  0.000000 ICntrl=       500 IOpCl=  0 I1Cent=   200000004 NGrid=           0
         NMat0=    1 NMatS0=      1 NMatT0=    0 NMatD0=    1 NMtDS0=    0 NMtDT0=    0
 Petite list used in FoFCou.
 Keep R1 ints in memory in symmetry-blocked form, NReq=3819142.
 Requested convergence on RMS density matrix=1.00D-08 within 128 cycles.
 Requested convergence on MAX density matrix=1.00D-06.
 Requested convergence on             energy=1.00D-06.
 No special actions if energy rises.
 Integral accuracy reduced to 1.0D-05 until final iterations.
 Initial convergence to 1.0D-05 achieved.  Increase integral accuracy.
 SCF Done:  E(RB3LYP) =  -197.724440655     A.U. after   10 cycles
            NFock= 10  Conv=0.18D-08     -V/T= 2.0063
 Calling FoFJK, ICntrl=      2127 FMM=F ISym2X=1 I1Cent= 0 IOpClX= 0 NMat=1 NMatS=1 NMatT=0.
 ***** Axes restored to original set *****
 -------------------------------------------------------------------
 Center     Atomic                   Forces (Hartrees/Bohr)
 Number     Number              X              Y              Z
 -------------------------------------------------------------------
      1        6           0.004006153    0.004220749    0.007312387
      2        1           0.000185949   -0.001575916   -0.000960922
      3        1           0.000188931   -0.000047330   -0.001844864
      4        1          -0.000499564    0.000228359    0.000393211
      5        6           0.004899811   -0.003937254   -0.006792097
      6        1          -0.001716513    0.001525253    0.001554950
      7        1          -0.001718334    0.000591928    0.002094668
      8        6          -0.005169280    0.003667235    0.006324247
      9        1           0.001758090   -0.000696164   -0.002467817
     10        1           0.001755943   -0.001796791   -0.001831353
     11        6           0.005768389   -0.003631071   -0.006259690
     12        1          -0.001417378    0.000698019    0.002279143
     13        1          -0.001415557    0.001631343    0.001739425
     14        6          -0.009295603   -0.000468262   -0.000841120
     15        1           0.001467060    0.000403224   -0.001061417
     16        1          -0.000262175    0.000312041    0.000538722
     17        1           0.001464077   -0.001125362   -0.000177475
 -------------------------------------------------------------------
 Cartesian Forces:  Max     0.009295603 RMS     0.003102479

 GradGradGradGradGradGradGradGradGradGradGradGradGradGradGradGradGradGrad
 Berny optimization.
 Using GEDIIS/GDIIS optimizer.
 FormGI is forming the generalized inverse of G from B-inverse, IUseBI=4.
 Internal  Forces:  Max     0.006670508 RMS     0.001675847
 Search for a local minimum.
 Step number   2 out of a maximum of   92
 All quantities printed in internal units (Hartrees-Bohrs-Radians)
 Mixed Optimization -- RFO/linear search
 Update second derivatives using D2CorX and points    1    2
 DE= -8.53D-03 DEPred=-9.20D-03 R= 9.27D-01
 TightC=F SS=  1.41D+00  RLast= 2.72D-01 DXNew= 5.0454D-01 8.1480D-01
 Trust test= 9.27D-01 RLast= 2.72D-01 DXMaxT set to 5.05D-01
 ITU=  1  0
 Use linear search instead of GDIIS.
     Eigenvalues ---    0.00237   0.00237   0.00237   0.00237   0.03402
     Eigenvalues ---    0.03445   0.03445   0.04732   0.04764   0.04767
     Eigenvalues ---    0.05408   0.05408   0.05543   0.05553   0.08282
     Eigenvalues ---    0.08289   0.08364   0.12180   0.12180   0.12241
     Eigenvalues ---    0.15685   0.16000   0.16000   0.16000   0.16000
     Eigenvalues ---    0.16197   0.21961   0.21970   0.23078   0.28495
     Eigenvalues ---    0.28519   0.28519   0.28851   0.36607   0.37230
     Eigenvalues ---    0.37230   0.37230   0.37230   0.37230   0.37230
     Eigenvalues ---    0.37230   0.37230   0.37230   0.37230   0.38186
 RFO step:  Lambda=-1.00469093D-03 EMin= 2.36824190D-03
 Quartic linear search produced a step of  0.02362.
 Iteration  1 RMS(Cart)=  0.01240271 RMS(Int)=  0.00004914
 Iteration  2 RMS(Cart)=  0.00004211 RMS(Int)=  0.00001608
 Iteration  3 RMS(Cart)=  0.00000000 RMS(Int)=  0.00001608
 ClnCor:  largest displacement from symmetrization is 6.43D-09 for atom     3.
 Variable       Old X    -DE/DX   Delta X   Delta X   Delta X     New X
                                 (Linear)    (Quad)   (Total)
    R1        2.06836   0.00157   0.00110   0.00563   0.00672   2.07508
    R2        2.06836   0.00157   0.00110   0.00563   0.00672   2.07508
    R3        2.06923   0.00049   0.00112   0.00269   0.00381   2.07304
    R4        2.93339  -0.00667   0.00055  -0.02319  -0.02264   2.91075
    R5        2.07111   0.00204   0.00116   0.00697   0.00813   2.07923
    R6        2.07111   0.00204   0.00116   0.00697   0.00813   2.07923
    R7        2.93256  -0.00541   0.00053  -0.01872  -0.01819   2.91436
    R8        2.07220   0.00231   0.00119   0.00774   0.00893   2.08112
    R9        2.07220   0.00231   0.00119   0.00774   0.00893   2.08112
   R10        2.93256  -0.00541   0.00053  -0.01872  -0.01819   2.91436
   R11        2.07111   0.00204   0.00116   0.00697   0.00813   2.07923
   R12        2.07111   0.00204   0.00116   0.00697   0.00813   2.07923
   R13        2.93339  -0.00667   0.00055  -0.02319  -0.02264   2.91075
   R14        2.06836   0.00157   0.00110   0.00563   0.00672   2.07508
   R15        2.06923   0.00049   0.00112   0.00269   0.00381   2.07304
   R16        2.06836   0.00157   0.00110   0.00563   0.00672   2.07508
    A1        1.88817  -0.00114  -0.00053  -0.00604  -0.00663   1.88153
    A2        1.88660  -0.00019  -0.00057  -0.00277  -0.00333   1.88327
    A3        1.92646   0.00130   0.00037   0.00915   0.00949   1.93595
    A4        1.88660  -0.00019  -0.00057  -0.00277  -0.00333   1.88327
    A5        1.92646   0.00130   0.00037   0.00915   0.00949   1.93595
    A6        1.94783  -0.00115   0.00088  -0.00719  -0.00631   1.94153
    A7        1.90632   0.00071  -0.00010   0.00425   0.00413   1.91045
    A8        1.90632   0.00071  -0.00010   0.00425   0.00413   1.91045
    A9        1.97187  -0.00196   0.00145  -0.00376  -0.00234   1.96954
   A10        1.87978  -0.00131  -0.00073  -0.01918  -0.01991   1.85987
   A11        1.89868   0.00093  -0.00028   0.00677   0.00647   1.90515
   A12        1.89868   0.00093  -0.00028   0.00677   0.00647   1.90515
   A13        1.89975   0.00099  -0.00026   0.00637   0.00610   1.90585
   A14        1.89975   0.00099  -0.00026   0.00637   0.00610   1.90585
   A15        1.98113  -0.00246   0.00167  -0.00559  -0.00394   1.97719
   A16        1.88126  -0.00149  -0.00069  -0.02100  -0.02169   1.85957
   A17        1.89975   0.00099  -0.00026   0.00637   0.00610   1.90585
   A18        1.89975   0.00099  -0.00026   0.00637   0.00610   1.90585
   A19        1.89868   0.00093  -0.00028   0.00677   0.00647   1.90515
   A20        1.89868   0.00093  -0.00028   0.00677   0.00647   1.90515
   A21        1.97187  -0.00196   0.00145  -0.00376  -0.00234   1.96954
   A22        1.87978  -0.00131  -0.00073  -0.01918  -0.01991   1.85987
   A23        1.90632   0.00071  -0.00010   0.00425   0.00413   1.91045
   A24        1.90632   0.00071  -0.00010   0.00425   0.00413   1.91045
   A25        1.92646   0.00130   0.00037   0.00915   0.00949   1.93595
   A26        1.94783  -0.00115   0.00088  -0.00719  -0.00631   1.94153
   A27        1.92646   0.00130   0.00037   0.00915   0.00949   1.93595
   A28        1.88660  -0.00019  -0.00057  -0.00277  -0.00333   1.88327
   A29        1.88817  -0.00114  -0.00053  -0.00604  -0.00663   1.88153
   A30        1.88660  -0.00019  -0.00057  -0.00277  -0.00333   1.88327
    D1       -3.12426   0.00050   0.00041   0.01120   0.01163  -3.11263
    D2       -1.07246  -0.00026  -0.00060  -0.00704  -0.00762  -1.08008
    D3        1.04323   0.00012  -0.00009   0.00208   0.00201   1.04524
    D4        1.07246   0.00026   0.00060   0.00704   0.00762   1.08008
    D5        3.12426  -0.00050  -0.00041  -0.01120  -0.01163   3.11263
    D6       -1.04323  -0.00012   0.00009  -0.00208  -0.00201  -1.04524
    D7       -1.02590   0.00038   0.00050   0.00912   0.00962  -1.01627
    D8        1.02590  -0.00038  -0.00050  -0.00912  -0.00962   1.01627
    D9        3.14159   0.00000   0.00000   0.00000   0.00000   3.14159
   D10        1.02306  -0.00034  -0.00057  -0.00899  -0.00956   1.01349
   D11       -1.02306   0.00034   0.00057   0.00899   0.00956  -1.01349
   D12        3.14159   0.00000   0.00000   0.00000   0.00000   3.14159
   D13       -1.09696  -0.00060  -0.00118  -0.01668  -0.01786  -1.11482
   D14        3.14011   0.00008  -0.00004   0.00130   0.00127   3.14138
   D15        1.02157  -0.00026  -0.00061  -0.00769  -0.00829   1.01328
   D16       -3.14011  -0.00008   0.00004  -0.00130  -0.00127  -3.14138
   D17        1.09696   0.00060   0.00118   0.01668   0.01786   1.11482
   D18       -1.02157   0.00026   0.00061   0.00769   0.00829  -1.01328
   D19        1.02157  -0.00026  -0.00061  -0.00769  -0.00829   1.01328
   D20       -1.02157   0.00026   0.00061   0.00769   0.00829  -1.01328
   D21        3.14159   0.00000   0.00000   0.00000   0.00000  -3.14159
   D22        3.14011   0.00008  -0.00004   0.00130   0.00127   3.14138
   D23        1.09696   0.00060   0.00118   0.01668   0.01786   1.11482
   D24       -1.02306   0.00034   0.00057   0.00899   0.00956  -1.01349
   D25       -1.09696  -0.00060  -0.00118  -0.01668  -0.01786  -1.11482
   D26       -3.14011  -0.00008   0.00004  -0.00130  -0.00127  -3.14138
   D27        1.02306  -0.00034  -0.00057  -0.00899  -0.00956   1.01349
   D28        1.04323   0.00012  -0.00009   0.00208   0.00201   1.04524
   D29        3.14159   0.00000   0.00000   0.00000   0.00000   3.14159
   D30       -1.04323  -0.00012   0.00009  -0.00208  -0.00201  -1.04524
   D31       -3.12426   0.00050   0.00041   0.01120   0.01163  -3.11263
   D32       -1.02590   0.00038   0.00050   0.00912   0.00962  -1.01627
   D33        1.07246   0.00026   0.00060   0.00704   0.00762   1.08008
   D34       -1.07246  -0.00026  -0.00060  -0.00704  -0.00762  -1.08008
   D35        1.02590  -0.00038  -0.00050  -0.00912  -0.00962   1.01627
   D36        3.12426  -0.00050  -0.00041  -0.01120  -0.01163   3.11263
         Item               Value     Threshold  Converged?
 Maximum Force            0.006671     0.000450     NO 
 RMS     Force            0.001676     0.000300     NO 
 Maximum Displacement     0.043154     0.001800     NO 
 RMS     Displacement     0.012400     0.001200     NO 
 Predicted change in Energy=-5.061180D-04
 GradGradGradGradGradGradGradGradGradGradGradGradGradGradGradGradGradGrad

                          Input orientation:                          
 ---------------------------------------------------------------------
 Center     Atomic      Atomic             Coordinates (Angstroms)
 Number     Number       Type             X           Y           Z
 ---------------------------------------------------------------------
      1          6           0       -6.181730    0.146050   -0.019176
      2          1           0       -5.842768   -0.897927   -0.050958
      3          1           0       -5.839771    0.638244   -0.939286
      4          1           0       -7.278717    0.144764   -0.025101
      5          6           0       -5.631246    0.865396    1.226634
      6          1           0       -6.008912    1.898563    1.250179
      7          1           0       -6.011891    0.371568    2.133201
      8          6           0       -4.089887    0.888825    1.272351
      9          1           0       -3.708172    1.383190    0.365310
     10          1           0       -3.711154   -0.145023    1.249037
     11          6           0       -3.527710    1.606915    2.516027
     12          1           0       -3.909646    1.112631    3.421803
     13          1           0       -3.906667    2.639627    2.538781
     14          6           0       -1.987914    1.624415    2.551485
     15          1           0       -1.581245    2.139420    1.671040
     16          1           0       -1.616795    2.140652    3.445458
     17          1           0       -1.584242    0.603249    2.559368
 ---------------------------------------------------------------------
                    Distance matrix (angstroms):
                    1          2          3          4          5
     1  C    0.000000
     2  H    1.098086   0.000000
     3  H    1.098086   1.774530   0.000000
     4  H    1.097004   1.774774   1.774774   0.000000
     5  C    1.540303   2.187759   2.187759   2.190961   0.000000
     6  H    2.170813   3.088838   2.531950   2.512877   1.100282
     7  H    2.170813   2.531950   3.088838   2.512877   1.100282
     8  C    2.568183   2.831294   2.831294   3.522165   1.542215
     9  H    2.792281   3.151710   2.607802   3.799331   2.169839
    10  H    2.792281   2.607802   3.151710   3.799331   2.169839
    11  C    3.950343   4.268857   4.268857   4.760806   2.576286
    12  H    4.235207   4.454141   4.792653   4.916152   2.800678
    13  H    4.235207   4.792653   4.454141   4.916152   2.800678
    14  C    5.136336   5.291013   5.291013   6.068011   3.950343
    15  H    5.291013   5.509204   5.215589   6.270306   4.268857
    16  H    6.068011   6.270306   6.270306   6.934386   4.760806
    17  H    5.291013   5.215589   5.509204   6.270306   4.268857
                    6          7          8          9         10
     6  H    0.000000
     7  H    1.763931   0.000000
     8  C    2.168575   2.168575   0.000000
     9  H    2.518334   3.075051   1.101284   0.000000
    10  H    3.075051   2.518334   1.101284   1.765338   0.000000
    11  C    2.800678   2.800678   1.542215   2.169839   2.169839
    12  H    3.120987   2.574705   2.168575   3.075051   2.518334
    13  H    2.574705   3.120987   2.168575   2.518334   3.075051
    14  C    4.235207   4.235207   2.568183   2.792281   2.792281
    15  H    4.454141   4.792653   2.831294   2.607802   3.151710
    16  H    4.916152   4.916152   3.522165   3.799331   3.799331
    17  H    4.792653   4.454141   2.831294   3.151710   2.607802
                   11         12         13         14         15
    11  C    0.000000
    12  H    1.100282   0.000000
    13  H    1.100282   1.763931   0.000000
    14  C    1.540303   2.170813   2.170813   0.000000
    15  H    2.187759   3.088838   2.531950   1.098086   0.000000
    16  H    2.190961   2.512877   2.512877   1.097004   1.774774
    17  H    2.187759   2.531950   3.088838   1.098086   1.774530
                   16         17
    16  H    0.000000
    17  H    1.774774   0.000000
 Stoichiometry    C5H12
 Framework group  C2V[C2(C),SGV(C4H2),SGV'(H2),X(H8)]
 Deg. of freedom    14
 Full point group                 C2V     NOp   4
 Largest Abelian subgroup         C2V     NOp   4
 Largest concise Abelian subgroup C2V     NOp   4
                         Standard orientation:                         
 ---------------------------------------------------------------------
 Center     Atomic      Atomic             Coordinates (Angstroms)
 Number     Number       Type             X           Y           Z
 ---------------------------------------------------------------------
      1          6           0        0.000000   -2.568168    0.327789
      2          1           0       -0.887265   -2.607795    0.973532
      3          1           0        0.887265   -2.607795    0.973532
      4          1           0        0.000000   -3.467193   -0.300838
      5          6           0        0.000000   -1.288143   -0.528989
      6          1           0        0.881965   -1.287352   -1.186832
      7          1           0       -0.881965   -1.287352   -1.186832
      8          6           0        0.000000    0.000000    0.319016
      9          1           0        0.882669    0.000000    0.977591
     10          1           0       -0.882669    0.000000    0.977591
     11          6           0        0.000000    1.288143   -0.528989
     12          1           0       -0.881965    1.287352   -1.186832
     13          1           0        0.881965    1.287352   -1.186832
     14          6           0        0.000000    2.568168    0.327789
     15          1           0        0.887265    2.607795    0.973532
     16          1           0        0.000000    3.467193   -0.300838
     17          1           0       -0.887265    2.607795    0.973532
 ---------------------------------------------------------------------
 Rotational constants (GHZ):          16.8459127           1.9119809           1.8142379
 Standard basis: 6-31G (6D, 7F)
 There are    27 symmetry adapted cartesian basis functions of A1  symmetry.
 There are     8 symmetry adapted cartesian basis functions of A2  symmetry.
 There are    12 symmetry adapted cartesian basis functions of B1  symmetry.
 There are    22 symmetry adapted cartesian basis functions of B2  symmetry.
 There are    27 symmetry adapted basis functions of A1  symmetry.
 There are     8 symmetry adapted basis functions of A2  symmetry.
 There are    12 symmetry adapted basis functions of B1  symmetry.
 There are    22 symmetry adapted basis functions of B2  symmetry.
    69 basis functions,   158 primitive gaussians,    69 cartesian basis functions
    21 alpha electrons       21 beta electrons
       nuclear repulsion energy       183.6063247066 Hartrees.
 NAtoms=   17 NActive=   17 NUniq=    7 SFac= 4.00D+00 NAtFMM=   60 NAOKFM=F Big=F
 Integral buffers will be    131072 words long.
 Raffenetti 2 integral format.
 Two-electron integral symmetry is turned on.
 One-electron integrals computed using PRISM.
 NBasis=    69 RedAO= T EigKep=  5.11D-03  NBF=    27     8    12    22
 NBsUse=    69 1.00D-06 EigRej= -1.00D+00 NBFU=    27     8    12    22
 Initial guess from the checkpoint file:  "C:\Users\tkmeldrum\Documents\MDworking\C5H12.chk"
 B after Tr=     0.000000    0.000000    0.000000
         Rot=    1.000000    0.000000    0.000000    0.000000 Ang=   0.00 deg.
 Initial guess orbital symmetries:
       Occupied  (B2) (A1) (A1) (B2) (A1) (A1) (B2) (A1) (B2) (A1)
                 (B1) (B2) (A2) (A1) (A1) (B1) (B2) (A2) (B1) (A1)
                 (B2)
       Virtual   (A1) (B2) (B1) (A1) (A1) (A2) (B2) (A1) (B1) (B2)
                 (A2) (B1) (A1) (B2) (B2) (A1) (A1) (A1) (B2) (A2)
                 (B1) (B2) (B1) (B2) (A1) (A1) (A2) (A1) (B2) (B1)
                 (B1) (A1) (B2) (A1) (A2) (A1) (B2) (B1) (B2) (A1)
                 (A2) (B2) (A1) (B1) (B2) (A1) (B2) (A1)
 ExpMin= 1.61D-01 ExpMax= 3.05D+03 ExpMxC= 4.57D+02 IAcc=3 IRadAn=         5 AccDes= 0.00D+00
 Harris functional with IExCor=  402 and IRadAn=       5 diagonalized for initial guess.
 HarFok:  IExCor=  402 AccDes= 0.00D+00 IRadAn=         5 IDoV= 1 UseB2=F ITyADJ=14
 ICtDFT=  3500011 ScaDFX=  1.000000  1.000000  1.000000  1.000000
 FoFCou: FMM=F IPFlag=           0 FMFlag=      100000 FMFlg1=           0
         NFxFlg=           0 DoJE=T BraDBF=F KetDBF=T FulRan=T
         wScrn=  0.000000 ICntrl=       500 IOpCl=  0 I1Cent=   200000004 NGrid=           0
         NMat0=    1 NMatS0=      1 NMatT0=    0 NMatD0=    1 NMtDS0=    0 NMtDT0=    0
 Petite list used in FoFCou.
 Keep R1 ints in memory in symmetry-blocked form, NReq=3819142.
 Requested convergence on RMS density matrix=1.00D-08 within 128 cycles.
 Requested convergence on MAX density matrix=1.00D-06.
 Requested convergence on             energy=1.00D-06.
 No special actions if energy rises.
 Integral accuracy reduced to 1.0D-05 until final iterations.
 Initial convergence to 1.0D-05 achieved.  Increase integral accuracy.
 SCF Done:  E(RB3LYP) =  -197.725000856     A.U. after    8 cycles
            NFock=  8  Conv=0.98D-08     -V/T= 2.0063
 Calling FoFJK, ICntrl=      2127 FMM=F ISym2X=1 I1Cent= 0 IOpClX= 0 NMat=1 NMatS=1 NMatT=0.
 ***** Axes restored to original set *****
 -------------------------------------------------------------------
 Center     Atomic                   Forces (Hartrees/Bohr)
 Number     Number              X              Y              Z
 -------------------------------------------------------------------
      1        6          -0.000047422    0.000796561    0.001377319
      2        1          -0.000259854    0.000533660   -0.000244115
      3        1          -0.000261826   -0.000477006    0.000340327
      4        1           0.000501232   -0.000215253   -0.000370542
      5        6           0.001163377   -0.001163494   -0.002008085
      6        1          -0.000049005   -0.000328532    0.000379718
      7        1          -0.000047402    0.000493121   -0.000095423
      8        6          -0.001548906    0.001098838    0.001894977
      9        1           0.000102123   -0.000477504    0.000108003
     10        1           0.000103701    0.000331486   -0.000359814
     11        6           0.001800251   -0.000938989   -0.001617704
     12        1          -0.000137986    0.000461189   -0.000150947
     13        1          -0.000139589   -0.000360464    0.000324194
     14        6          -0.001484262    0.000290060    0.000496588
     15        1           0.000033333   -0.000372959    0.000521248
     16        1           0.000236932   -0.000308422   -0.000532549
     17        1           0.000035304    0.000637706   -0.000063194
 -------------------------------------------------------------------
 Cartesian Forces:  Max     0.002008085 RMS     0.000764145

 GradGradGradGradGradGradGradGradGradGradGradGradGradGradGradGradGradGrad
 Berny optimization.
 Using GEDIIS/GDIIS optimizer.
 FormGI is forming the generalized inverse of G from B-inverse, IUseBI=4.
 Internal  Forces:  Max     0.001165789 RMS     0.000364256
 Search for a local minimum.
 Step number   3 out of a maximum of   92
 All quantities printed in internal units (Hartrees-Bohrs-Radians)
 Mixed Optimization -- En-DIIS/RFO-DIIS
 Update second derivatives using D2CorX and points    1    2    3
 DE= -5.60D-04 DEPred=-5.06D-04 R= 1.11D+00
 TightC=F SS=  1.41D+00  RLast= 8.75D-02 DXNew= 8.4853D-01 2.6239D-01
 Trust test= 1.11D+00 RLast= 8.75D-02 DXMaxT set to 5.05D-01
 ITU=  1  1  0
 Use linear search instead of GDIIS.
     Eigenvalues ---    0.00237   0.00237   0.00237   0.00237   0.03372
     Eigenvalues ---    0.03411   0.03411   0.04068   0.04732   0.04737
     Eigenvalues ---    0.05410   0.05410   0.05452   0.05484   0.08305
     Eigenvalues ---    0.08320   0.08377   0.12198   0.12198   0.12250
     Eigenvalues ---    0.14974   0.16000   0.16000   0.16000   0.16000
     Eigenvalues ---    0.16358   0.21899   0.21911   0.22578   0.28518
     Eigenvalues ---    0.28519   0.28519   0.30508   0.37004   0.37230
     Eigenvalues ---    0.37230   0.37230   0.37230   0.37230   0.37230
     Eigenvalues ---    0.37230   0.37230   0.37230   0.37337   0.39118
 RFO step:  Lambda=-6.04430437D-05 EMin= 2.36824190D-03
 Quartic linear search produced a step of  0.11657.
 Iteration  1 RMS(Cart)=  0.00241648 RMS(Int)=  0.00000867
 Iteration  2 RMS(Cart)=  0.00001747 RMS(Int)=  0.00000415
 Iteration  3 RMS(Cart)=  0.00000000 RMS(Int)=  0.00000415
 ClnCor:  largest displacement from symmetrization is 2.54D-08 for atom    10.
 Variable       Old X    -DE/DX   Delta X   Delta X   Delta X     New X
                                 (Linear)    (Quad)   (Total)
    R1        2.07508  -0.00058   0.00078  -0.00185  -0.00107   2.07401
    R2        2.07508  -0.00058   0.00078  -0.00185  -0.00107   2.07401
    R3        2.07304  -0.00050   0.00044  -0.00144  -0.00100   2.07204
    R4        2.91075  -0.00117  -0.00264  -0.00320  -0.00584   2.90491
    R5        2.07923  -0.00028   0.00095  -0.00102  -0.00008   2.07916
    R6        2.07923  -0.00028   0.00095  -0.00102  -0.00008   2.07916
    R7        2.91436  -0.00097  -0.00212  -0.00270  -0.00482   2.90954
    R8        2.08112  -0.00027   0.00104  -0.00101   0.00003   2.08115
    R9        2.08112  -0.00027   0.00104  -0.00101   0.00003   2.08115
   R10        2.91436  -0.00097  -0.00212  -0.00270  -0.00482   2.90954
   R11        2.07923  -0.00028   0.00095  -0.00102  -0.00008   2.07916
   R12        2.07923  -0.00028   0.00095  -0.00102  -0.00008   2.07916
   R13        2.91075  -0.00117  -0.00264  -0.00320  -0.00584   2.90491
   R14        2.07508  -0.00058   0.00078  -0.00185  -0.00107   2.07401
   R15        2.07304  -0.00050   0.00044  -0.00144  -0.00100   2.07204
   R16        2.07508  -0.00058   0.00078  -0.00185  -0.00107   2.07401
    A1        1.88153  -0.00030  -0.00077  -0.00278  -0.00356   1.87797
    A2        1.88327  -0.00035  -0.00039  -0.00192  -0.00231   1.88096
    A3        1.93595   0.00021   0.00111   0.00077   0.00187   1.93782
    A4        1.88327  -0.00035  -0.00039  -0.00192  -0.00231   1.88096
    A5        1.93595   0.00021   0.00111   0.00077   0.00187   1.93782
    A6        1.94153   0.00053  -0.00074   0.00471   0.00397   1.94550
    A7        1.91045  -0.00012   0.00048   0.00017   0.00065   1.91110
    A8        1.91045  -0.00012   0.00048   0.00017   0.00065   1.91110
    A9        1.96954   0.00070  -0.00027   0.00553   0.00524   1.97478
   A10        1.85987  -0.00012  -0.00232  -0.00467  -0.00699   1.85288
   A11        1.90515  -0.00019   0.00075  -0.00090  -0.00016   1.90499
   A12        1.90515  -0.00019   0.00075  -0.00090  -0.00016   1.90499
   A13        1.90585  -0.00012   0.00071  -0.00025   0.00046   1.90631
   A14        1.90585  -0.00012   0.00071  -0.00025   0.00046   1.90631
   A15        1.97719   0.00057  -0.00046   0.00493   0.00446   1.98166
   A16        1.85957  -0.00014  -0.00253  -0.00453  -0.00706   1.85251
   A17        1.90585  -0.00012   0.00071  -0.00025   0.00046   1.90631
   A18        1.90585  -0.00012   0.00071  -0.00025   0.00046   1.90631
   A19        1.90515  -0.00019   0.00075  -0.00090  -0.00016   1.90499
   A20        1.90515  -0.00019   0.00075  -0.00090  -0.00016   1.90499
   A21        1.96954   0.00070  -0.00027   0.00553   0.00524   1.97478
   A22        1.85987  -0.00012  -0.00232  -0.00467  -0.00699   1.85288
   A23        1.91045  -0.00012   0.00048   0.00017   0.00065   1.91110
   A24        1.91045  -0.00012   0.00048   0.00017   0.00065   1.91110
   A25        1.93595   0.00021   0.00111   0.00077   0.00187   1.93782
   A26        1.94153   0.00053  -0.00074   0.00471   0.00397   1.94550
   A27        1.93595   0.00021   0.00111   0.00077   0.00187   1.93782
   A28        1.88327  -0.00035  -0.00039  -0.00192  -0.00231   1.88096
   A29        1.88153  -0.00030  -0.00077  -0.00278  -0.00356   1.87797
   A30        1.88327  -0.00035  -0.00039  -0.00192  -0.00231   1.88096
    D1       -3.11263   0.00009   0.00136   0.00147   0.00283  -3.10980
    D2       -1.08008  -0.00019  -0.00089  -0.00395  -0.00484  -1.08492
    D3        1.04524  -0.00005   0.00023  -0.00124  -0.00100   1.04423
    D4        1.08008   0.00019   0.00089   0.00395   0.00484   1.08492
    D5        3.11263  -0.00009  -0.00136  -0.00147  -0.00283   3.10980
    D6       -1.04524   0.00005  -0.00023   0.00124   0.00100  -1.04423
    D7       -1.01627   0.00014   0.00112   0.00271   0.00384  -1.01244
    D8        1.01627  -0.00014  -0.00112  -0.00271  -0.00384   1.01244
    D9        3.14159   0.00000   0.00000   0.00000   0.00000   3.14159
   D10        1.01349  -0.00015  -0.00112  -0.00285  -0.00397   1.00953
   D11       -1.01349   0.00015   0.00112   0.00285   0.00397  -1.00953
   D12        3.14159   0.00000   0.00000   0.00000   0.00000   3.14159
   D13       -1.11482  -0.00033  -0.00208  -0.00615  -0.00823  -1.12305
   D14        3.14138  -0.00003   0.00015  -0.00044  -0.00029   3.14109
   D15        1.01328  -0.00018  -0.00097  -0.00329  -0.00426   1.00902
   D16       -3.14138   0.00003  -0.00015   0.00044   0.00029  -3.14109
   D17        1.11482   0.00033   0.00208   0.00615   0.00823   1.12305
   D18       -1.01328   0.00018   0.00097   0.00329   0.00426  -1.00902
   D19        1.01328  -0.00018  -0.00097  -0.00329  -0.00426   1.00902
   D20       -1.01328   0.00018   0.00097   0.00329   0.00426  -1.00902
   D21        3.14159   0.00000   0.00000   0.00000   0.00000   3.14159
   D22        3.14138  -0.00003   0.00015  -0.00044  -0.00029   3.14109
   D23        1.11482   0.00033   0.00208   0.00615   0.00823   1.12305
   D24       -1.01349   0.00015   0.00112   0.00285   0.00397  -1.00953
   D25       -1.11482  -0.00033  -0.00208  -0.00615  -0.00823  -1.12305
   D26       -3.14138   0.00003  -0.00015   0.00044   0.00029  -3.14109
   D27        1.01349  -0.00015  -0.00112  -0.00285  -0.00397   1.00953
   D28        1.04524  -0.00005   0.00023  -0.00124  -0.00100   1.04423
   D29        3.14159   0.00000   0.00000   0.00000   0.00000   3.14159
   D30       -1.04524   0.00005  -0.00023   0.00124   0.00100  -1.04423
   D31       -3.11263   0.00009   0.00136   0.00147   0.00283  -3.10980
   D32       -1.01627   0.00014   0.00112   0.00271   0.00384  -1.01244
   D33        1.08008   0.00019   0.00089   0.00395   0.00484   1.08492
   D34       -1.08008  -0.00019  -0.00089  -0.00395  -0.00484  -1.08492
   D35        1.01627  -0.00014  -0.00112  -0.00271  -0.00384   1.01244
   D36        3.11263  -0.00009  -0.00136  -0.00147  -0.00283   3.10980
         Item               Value     Threshold  Converged?
 Maximum Force            0.001166     0.000450     NO 
 RMS     Force            0.000364     0.000300     NO 
 Maximum Displacement     0.005932     0.001800     NO 
 RMS     Displacement     0.002413     0.001200     NO 
 Predicted change in Energy=-3.689756D-05
 GradGradGradGradGradGradGradGradGradGradGradGradGradGradGradGradGradGrad

                          Input orientation:                          
 ---------------------------------------------------------------------
 Center     Atomic      Atomic             Coordinates (Angstroms)
 Number     Number       Type             X           Y           Z
 ---------------------------------------------------------------------
      1          6           0       -6.182816    0.147031   -0.017483
      2          1           0       -5.845890   -0.896909   -0.052424
      3          1           0       -5.842899    0.636474   -0.939140
      4          1           0       -7.279267    0.145218   -0.024318
      5          6           0       -5.629116    0.864097    1.224394
      6          1           0       -6.007944    1.896705    1.251635
      7          1           0       -6.010916    0.373754    2.132319
      8          6           0       -4.090424    0.889207    1.273008
      9          1           0       -3.706912    1.380286    0.364924
     10          1           0       -3.709886   -0.143913    1.246329
     11          6           0       -3.525979    1.605475    2.513543
     12          1           0       -3.910279    1.114251    3.419935
     13          1           0       -3.907307    2.637202    2.539252
     14          6           0       -1.989397    1.625256    2.552935
     15          1           0       -1.579490    2.139372    1.674179
     16          1           0       -1.617465    2.141064    3.446167
     17          1           0       -1.582482    0.605988    2.560895
 ---------------------------------------------------------------------
                    Distance matrix (angstroms):
                    1          2          3          4          5
     1  C    0.000000
     2  H    1.097520   0.000000
     3  H    1.097520   1.771310   0.000000
     4  H    1.096474   1.772396   1.772396   0.000000
     5  C    1.537214   2.185955   2.185955   2.190678   0.000000
     6  H    2.168548   3.087250   2.532769   2.512375   1.100242
     7  H    2.168548   2.532769   3.087250   2.512375   1.100242
     8  C    2.567936   2.833486   2.833486   3.522115   1.539664
     9  H    2.792357   3.151988   2.610801   3.799820   2.167951
    10  H    2.792357   2.610801   3.151988   3.799820   2.167951
    11  C    3.948663   4.269438   4.269438   4.760280   2.575798
    12  H    4.232704   4.455181   4.792163   4.914468   2.799532
    13  H    4.232704   4.792163   4.455181   4.914468   2.799532
[...]
 ! A16   A(9,8,10)             106.1409         -DE/DX =    0.0                 !
 ! A17   A(9,8,11)             109.2235         -DE/DX =    0.0                 !
 ! A18   A(10,8,11)            109.2235         -DE/DX =    0.0                 !
 ! A19   A(8,11,12)            109.1479         -DE/DX =    0.0                 !
 ! A20   A(8,11,13)            109.1479         -DE/DX =    0.0                 !
 ! A21   A(8,11,14)            113.1466         -DE/DX =    0.0                 !
 ! A22   A(12,11,13)           106.1623         -DE/DX =    0.0                 !
 ! A23   A(12,11,14)           109.4982         -DE/DX =    0.0                 !
 ! A24   A(13,11,14)           109.4982         -DE/DX =    0.0                 !
 ! A25   A(11,14,15)           111.0291         -DE/DX =    0.0                 !
 ! A26   A(11,14,16)           111.469          -DE/DX =    0.0                 !
 ! A27   A(11,14,17)           111.0291         -DE/DX =    0.0                 !
 ! A28   A(15,14,16)           107.7708         -DE/DX =    0.0                 !
 ! A29   A(15,14,17)           107.5999         -DE/DX =    0.0                 !
 ! A30   A(16,14,17)           107.7708         -DE/DX =    0.0                 !
 ! D1    D(2,1,5,6)           -178.1782         -DE/DX =    0.0                 !
 ! D2    D(2,1,5,7)            -62.1614         -DE/DX =    0.0                 !
 ! D3    D(2,1,5,8)             59.8302         -DE/DX =    0.0                 !
 ! D4    D(3,1,5,6)             62.1614         -DE/DX =    0.0                 !
 ! D5    D(3,1,5,7)            178.1782         -DE/DX =    0.0                 !
 ! D6    D(3,1,5,8)            -59.8302         -DE/DX =    0.0                 !
 ! D7    D(4,1,5,6)            -58.0084         -DE/DX =    0.0                 !
 ! D8    D(4,1,5,7)             58.0084         -DE/DX =    0.0                 !
 ! D9    D(4,1,5,8)           -180.0            -DE/DX =    0.0                 !
 ! D10   D(1,5,8,9)             57.8415         -DE/DX =    0.0                 !
 ! D11   D(1,5,8,10)           -57.8415         -DE/DX =    0.0                 !
 ! D12   D(1,5,8,11)           180.0            -DE/DX =    0.0                 !
 ! D13   D(6,5,8,9)            -64.346          -DE/DX =    0.0                 !
 ! D14   D(6,5,8,10)           179.9709         -DE/DX =    0.0                 !
 ! D15   D(6,5,8,11)            57.8125         -DE/DX =    0.0                 !
 ! D16   D(7,5,8,9)           -179.9709         -DE/DX =    0.0                 !
 ! D17   D(7,5,8,10)            64.346          -DE/DX =    0.0                 !
 ! D18   D(7,5,8,11)           -57.8125         -DE/DX =    0.0                 !
 ! D19   D(5,8,11,12)           57.8125         -DE/DX =    0.0                 !
 ! D20   D(5,8,11,13)          -57.8125         -DE/DX =    0.0                 !
 ! D21   D(5,8,11,14)          180.0            -DE/DX =    0.0                 !
 ! D22   D(9,8,11,12)          179.9709         -DE/DX =    0.0                 !
 ! D23   D(9,8,11,13)           64.346          -DE/DX =    0.0                 !
 ! D24   D(9,8,11,14)          -57.8415         -DE/DX =    0.0                 !
 ! D25   D(10,8,11,12)         -64.346          -DE/DX =    0.0                 !
 ! D26   D(10,8,11,13)        -179.9709         -DE/DX =    0.0                 !
 ! D27   D(10,8,11,14)          57.8415         -DE/DX =    0.0                 !
 ! D28   D(8,11,14,15)          59.8302         -DE/DX =    0.0                 !
 ! D29   D(8,11,14,16)         180.0            -DE/DX =    0.0                 !
 ! D30   D(8,11,14,17)         -59.8302         -DE/DX =    0.0                 !
 ! D31   D(12,11,14,15)       -178.1782         -DE/DX =    0.0                 !
 ! D32   D(12,11,14,16)        -58.0084         -DE/DX =    0.0                 !
 ! D33   D(12,11,14,17)         62.1614         -DE/DX =    0.0                 !
 ! D34   D(13,11,14,15)        -62.1614         -DE/DX =    0.0                 !
 ! D35   D(13,11,14,16)         58.0084         -DE/DX =    0.0                 !
 ! D36   D(13,11,14,17)        178.1782         -DE/DX =    0.0                 !
 --------------------------------------------------------------------------------
 GradGradGradGradGradGradGradGradGradGradGradGradGradGradGradGradGradGrad

                          Input orientation:                          
 ---------------------------------------------------------------------
 Center     Atomic      Atomic             Coordinates (Angstroms)
 Number     Number       Type             X           Y           Z
 ---------------------------------------------------------------------
      1          6           0       -6.182816    0.147031   -0.017483
      2          1           0       -5.845890   -0.896909   -0.052424
      3          1           0       -5.842899    0.636474   -0.939140
      4          1           0       -7.279267    0.145218   -0.024318
      5          6           0       -5.629116    0.864097    1.224394
      6          1           0       -6.007944    1.896705    1.251635
      7          1           0       -6.010916    0.373754    2.132319
      8          6           0       -4.090424    0.889207    1.273008
      9          1           0       -3.706912    1.380286    0.364924
     10          1           0       -3.709886   -0.143913    1.246329
     11          6           0       -3.525979    1.605475    2.513543
     12          1           0       -3.910279    1.114251    3.419935
     13          1           0       -3.907307    2.637202    2.539252
     14          6           0       -1.989397    1.625256    2.552935
     15          1           0       -1.579490    2.139372    1.674179
     16          1           0       -1.617465    2.141064    3.446167
     17          1           0       -1.582482    0.605988    2.560895
 ---------------------------------------------------------------------
                    Distance matrix (angstroms):
                    1          2          3          4          5
     1  C    0.000000
     2  H    1.097520   0.000000
     3  H    1.097520   1.771310   0.000000
     4  H    1.096474   1.772396   1.772396   0.000000
     5  C    1.537214   2.185955   2.185955   2.190678   0.000000
     6  H    2.168548   3.087250   2.532769   2.512375   1.100242
     7  H    2.168548   2.532769   3.087250   2.512375   1.100242
     8  C    2.567936   2.833486   2.833486   3.522115   1.539664
     9  H    2.792357   3.151988   2.610801   3.799820   2.167951
    10  H    2.792357   2.610801   3.151988   3.799820   2.167951
    11  C    3.948663   4.269438   4.269438   4.760280   2.575798
    12  H    4.232704   4.455181   4.792163   4.914468   2.799532
    13  H    4.232704   4.792163   4.455181   4.914468   2.799532
    14  C    5.135850   5.293557   5.293557   6.067575   3.948663
    15  H    5.293557   5.513831   5.221570   6.272878   4.269438
    16  H    6.067575   6.272878   6.272878   6.934240   4.760280
    17  H    5.293557   5.221570   5.513831   6.272878   4.269438
                    6          7          8          9         10
     6  H    0.000000
     7  H    1.759259   0.000000
     8  C    2.166193   2.166193   0.000000
     9  H    2.519463   3.073308   1.101298   0.000000
    10  H    3.073308   2.519463   1.101298   1.760700   0.000000
    11  C    2.799532   2.799532   1.539664   2.167951   2.167951
    12  H    3.116722   2.572735   2.166193   3.073308   2.519463
    13  H    2.572735   3.116722   2.166193   2.519463   3.073308
    14  C    4.232704   4.232704   2.567936   2.792357   2.792357
    15  H    4.455181   4.792163   2.833486   2.610801   3.151988
    16  H    4.914468   4.914468   3.522115   3.799820   3.799820
    17  H    4.792163   4.455181   2.833486   3.151988   2.610801
                   11         12         13         14         15
    11  C    0.000000
    12  H    1.100242   0.000000
    13  H    1.100242   1.759259   0.000000
    14  C    1.537214   2.168548   2.168548   0.000000
    15  H    2.185955   3.087250   2.532769   1.097520   0.000000
    16  H    2.190678   2.512375   2.512375   1.096474   1.772396
    17  H    2.185955   2.532769   3.087250   1.097520   1.771310
                   16         17
    16  H    0.000000
    17  H    1.772396   0.000000
 Stoichiometry    C5H12
 Framework group  C2V[C2(C),SGV(C4H2),SGV'(H2),X(H8)]
 Deg. of freedom    14
 Full point group                 C2V     NOp   4
 Largest Abelian subgroup         C2V     NOp   4
 Largest concise Abelian subgroup C2V     NOp   4
                         Standard orientation:                         
 ---------------------------------------------------------------------
 Center     Atomic      Atomic             Coordinates (Angstroms)
 Number     Number       Type             X           Y           Z
 ---------------------------------------------------------------------
      1          6           0        0.000000   -2.567925    0.325409
      2          1           0       -0.885655   -2.610785    0.972192
      3          1           0        0.885655   -2.610785    0.972192
      4          1           0        0.000000   -3.467120   -0.302050
      5          6           0        0.000000   -1.287899   -0.525801
      6          1           0        0.879629   -1.286368   -1.186697
      7          1           0       -0.879629   -1.286368   -1.186697
      8          6           0        0.000000    0.000000    0.317930
      9          1           0        0.880350    0.000000    0.979626
     10          1           0       -0.880350    0.000000    0.979626
     11          6           0        0.000000    1.287899   -0.525801
     12          1           0       -0.879629    1.286368   -1.186697
     13          1           0        0.879629    1.286368   -1.186697
     14          6           0        0.000000    2.567925    0.325409
     15          1           0        0.885655    2.610785    0.972192
     16          1           0        0.000000    3.467120   -0.302050
     17          1           0       -0.885655    2.610785    0.972192
 ---------------------------------------------------------------------
 Rotational constants (GHZ):          16.9390339           1.9121961           1.8150328

 **********************************************************************

            Population analysis using the SCF Density.

 **********************************************************************

 Orbital symmetries:
       Occupied  (B2) (A1) (A1) (B2) (A1) (A1) (B2) (A1) (B2) (A1)
                 (B1) (B2) (A2) (A1) (A1) (B1) (B2) (A2) (A1) (B1)
                 (B2)
       Virtual   (A1) (B2) (B1) (A1) (A1) (A2) (B2) (A1) (B1) (B2)
                 (A2) (B1) (A1) (B2) (B2) (A1) (A1) (A1) (B2) (A2)
                 (B1) (B2) (B1) (B2) (A1) (A1) (A2) (A1) (B2) (B1)
                 (B1) (A1) (B2) (A1) (A2) (A1) (B2) (B1) (B2) (A1)
                 (A2) (B2) (A1) (B1) (B2) (A1) (B2) (A1)
 The electronic state is 1-A1.
 Alpha  occ. eigenvalues --  -10.17202 -10.17201 -10.16941 -10.16470 -10.16470
 Alpha  occ. eigenvalues --   -0.79615  -0.74641  -0.67297  -0.59727  -0.57254
 Alpha  occ. eigenvalues --   -0.47057  -0.43296  -0.42797  -0.39889  -0.39120
 Alpha  occ. eigenvalues --   -0.37394  -0.34967  -0.33199  -0.32165  -0.31670
 Alpha  occ. eigenvalues --   -0.31155
 Alpha virt. eigenvalues --    0.09251   0.11006   0.12713   0.13494   0.15331
 Alpha virt. eigenvalues --    0.17413   0.17443   0.17821   0.19615   0.19753
 Alpha virt. eigenvalues --    0.20044   0.20693   0.22584   0.25394   0.27227
 Alpha virt. eigenvalues --    0.27435   0.52525   0.54043   0.54314   0.57159
 Alpha virt. eigenvalues --    0.58057   0.61270   0.62057   0.66283   0.66800
 Alpha virt. eigenvalues --    0.68748   0.73280   0.77388   0.78748   0.81472
 Alpha virt. eigenvalues --    0.88885   0.89836   0.93232   0.94136   0.94202
 Alpha virt. eigenvalues --    0.96584   0.98197   0.98676   1.00711   1.00978
 Alpha virt. eigenvalues --    1.02177   1.04046   1.04212   1.24918   1.33008
 Alpha virt. eigenvalues --    1.43234   1.50005   1.75313
          Condensed to atoms (all electrons):
               1          2          3          4          5          6
     1  C    5.086059   0.376392   0.376392   0.368144   0.326887  -0.041256
     2  H    0.376392   0.597782  -0.034441  -0.033065  -0.037898   0.005243
     3  H    0.376392  -0.034441   0.597782  -0.033065  -0.037898  -0.004744
     4  H    0.368144  -0.033065  -0.033065   0.599311  -0.029453  -0.002673
     5  C    0.326887  -0.037898  -0.037898  -0.029453   5.049359   0.378624
     6  H   -0.041256   0.005243  -0.004744  -0.002673   0.378624   0.626334
     7  H   -0.041256  -0.004744   0.005243  -0.002673   0.378624  -0.041757
     8  C   -0.045121  -0.004437  -0.004437   0.004353   0.335503  -0.043803
     9  H   -0.002551  -0.000500   0.004946  -0.000012  -0.044004  -0.005820
    10  H   -0.002551   0.004946  -0.000500  -0.000012  -0.044004   0.005942
    11  C    0.004237   0.000045   0.000045  -0.000161  -0.036971  -0.003181
    12  H    0.000037   0.000001   0.000007   0.000002  -0.003181  -0.000585
    13  H    0.000037   0.000007   0.000001   0.000002  -0.003181   0.005308
    14  C   -0.000169   0.000001   0.000001   0.000002   0.004237   0.000037
    15  H    0.000001   0.000000  -0.000001   0.000000   0.000045   0.000001
    16  H    0.000002   0.000000   0.000000   0.000000  -0.000161   0.000002
    17  H    0.000001  -0.000001   0.000000   0.000000   0.000045   0.000007
               7          8          9         10         11         12
     1  C   -0.041256  -0.045121  -0.002551  -0.002551   0.004237   0.000037
     2  H   -0.004744  -0.004437  -0.000500   0.004946   0.000045   0.000001
     3  H    0.005243  -0.004437   0.004946  -0.000500   0.000045   0.000007
     4  H   -0.002673   0.004353  -0.000012  -0.000012  -0.000161   0.000002
     5  C    0.378624   0.335503  -0.044004  -0.044004  -0.036971  -0.003181
     6  H   -0.041757  -0.043803  -0.005820   0.005942  -0.003181  -0.000585
     7  H    0.626334  -0.043803   0.005942  -0.005820  -0.003181   0.005308
     8  C   -0.043803   5.074937   0.375905   0.375905   0.335503  -0.043803
     9  H    0.005942   0.375905   0.632586  -0.042701  -0.044004   0.005942
    10  H   -0.005820   0.375905  -0.042701   0.632586  -0.044004  -0.005820
    11  C   -0.003181   0.335503  -0.044004  -0.044004   5.049359   0.378624
    12  H    0.005308  -0.043803   0.005942  -0.005820   0.378624   0.626334
    13  H   -0.000585  -0.043803  -0.005820   0.005942   0.378624  -0.041757
    14  C    0.000037  -0.045121  -0.002551  -0.002551   0.326887  -0.041256
    15  H    0.000007  -0.004437   0.004946  -0.000500  -0.037898   0.005243
    16  H    0.000002   0.004353  -0.000012  -0.000012  -0.029453  -0.002673
    17  H    0.000001  -0.004437  -0.000500   0.004946  -0.037898  -0.004744
              13         14         15         16         17
     1  C    0.000037  -0.000169   0.000001   0.000002   0.000001
     2  H    0.000007   0.000001   0.000000   0.000000  -0.000001
     3  H    0.000001   0.000001  -0.000001   0.000000   0.000000
     4  H    0.000002   0.000002   0.000000   0.000000   0.000000
     5  C   -0.003181   0.004237   0.000045  -0.000161   0.000045
     6  H    0.005308   0.000037   0.000001   0.000002   0.000007
     7  H   -0.000585   0.000037   0.000007   0.000002   0.000001
     8  C   -0.043803  -0.045121  -0.004437   0.004353  -0.004437
     9  H   -0.005820  -0.002551   0.004946  -0.000012  -0.000500
    10  H    0.005942  -0.002551  -0.000500  -0.000012   0.004946
    11  C    0.378624   0.326887  -0.037898  -0.029453  -0.037898
    12  H   -0.041757  -0.041256   0.005243  -0.002673  -0.004744
    13  H    0.626334  -0.041256  -0.004744  -0.002673   0.005243
    14  C   -0.041256   5.086059   0.376392   0.368144   0.376392
    15  H   -0.004744   0.376392   0.597782  -0.033065  -0.034441
    16  H   -0.002673   0.368144  -0.033065   0.599311  -0.033065
    17  H    0.005243   0.376392  -0.034441  -0.033065   0.597782
 Mulliken charges:
               1
     1  C   -0.405285
     2  H    0.130669
     3  H    0.130669
     4  H    0.129301
     5  C   -0.236574
     6  H    0.122321
     7  H    0.122321
     8  C   -0.223262
     9  H    0.118208
    10  H    0.118208
    11  C   -0.236574
    12  H    0.122321
    13  H    0.122321
    14  C   -0.405285
    15  H    0.130669
    16  H    0.129301
    17  H    0.130669
 Sum of Mulliken charges =   0.00000
 Mulliken charges with hydrogens summed into heavy atoms:
               1
     1  C   -0.014645
     5  C    0.008068
     8  C    0.013155
    11  C    0.008068
    14  C   -0.014645
 Electronic spatial extent (au):  <R**2>=            726.1436
 Charge=              0.0000 electrons
 Dipole moment (field-independent basis, Debye):
    X=              0.0000    Y=              0.0000    Z=             -0.0424  Tot=              0.0424
 Quadrupole moment (field-independent basis, Debye-Ang):
   XX=            -34.5260   YY=            -35.4399   ZZ=            -35.1641
   XY=              0.0000   XZ=              0.0000   YZ=              0.0000
 Traceless Quadrupole moment (field-independent basis, Debye-Ang):
   XX=              0.5173   YY=             -0.3965   ZZ=             -0.1208
   XY=              0.0000   XZ=              0.0000   YZ=              0.0000
 Octapole moment (field-independent basis, Debye-Ang**2):
  XXX=              0.0000  YYY=              0.0000  ZZZ=             -0.1228  XYY=              0.0000
  XXY=              0.0000  XXZ=              0.4464  XZZ=              0.0000  YZZ=              0.0000
  YYZ=             -1.6845  XYZ=              0.0000
 Hexadecapole moment (field-independent basis, Debye-Ang**3):
 XXXX=            -70.6991 YYYY=           -824.2285 ZZZZ=           -119.6686 XXXY=              0.0000
 XXXZ=              0.0000 YYYX=              0.0000 YYYZ=              0.0000 ZZZX=              0.0000
 ZZZY=              0.0000 XXYY=           -148.6870 XXZZ=            -29.0178 YYZZ=           -156.3086
 XXYZ=              0.0000 YYXZ=              0.0000 ZZXY=              0.0000
 N-N= 1.837394978230D+02 E-N=-8.243167282859D+02  KE= 1.965063680389D+02
 Symmetry A1   KE= 1.103056954684D+02
 Symmetry A2   KE= 4.001354976261D+00
 Symmetry B1   KE= 5.794109174289D+00
 Symmetry B2   KE= 7.640520841994D+01
 1|1|UNPC-6424705A076343F|FOpt|RB3LYP|6-31G|C5H12|TKMELDRUM|14-Mar-2023
 |0||# opt b3lyp/6-31g geom=connectivity||Title Card Required||0,1|C,-6
 .1828160325,0.1470311606,-0.0174829513|H,-5.8458902735,-0.8969090543,-
 0.0524242197|H,-5.8428986246,0.6364744605,-0.9391403951|H,-7.279267437
 4,0.1452176687,-0.0243182572|C,-5.6291162245,0.8640965874,1.2243944502
 |H,-6.0079442129,1.8967049354,1.2516354291|H,-6.0109155074,0.373754145
 6,2.1323186285|C,-4.0904243539,0.8892066579,1.2730081951|H,-3.70691177
 3,1.3802860622,0.364924414|H,-3.7098855022,-0.1439126239,1.2463292397|
 C,-3.525978956,1.6054749619,2.5135433997|H,-3.9102785955,1.1142511177,
 3.4199349477|H,-3.9073073009,2.6372019076,2.5392517483|C,-1.9893974202
 ,1.6252560588,2.5529347194|H,-1.5794900658,2.1393715632,1.6741786436|H
 ,-1.6174646078,2.1410637039,3.4461671359|H,-1.5824817147,0.6059880483,
 2.5608948191||Version=EM64W-G16RevB.01|State=1-A1|HF=-197.7250376|RMSD
 =2.736e-009|RMSF=5.495e-005|Dipole=-0.0096292,0.0068312,0.0117806|Quad
 rupole=-0.2264717,0.2487402,-0.0222685,-0.0474804,-0.0841688,-0.235125
 9|PG=C02V [C2(C1),SGV(C4H2),SGV'(H2),X(H8)]||@


 MUD THROWN IS GROUND LOST -- FROM A TEA BAG
 Job cpu time:       0 days  0 hours  1 minutes 39.0 seconds.
 Elapsed time:       0 days  0 hours  1 minutes 32.1 seconds.
 File lengths (MBytes):  RWF=      6 Int=      0 D2E=      0 Chk=      2 Scr=      1
 Normal termination of Gaussian 16 at Tue Mar 14 09:54:18 2023.
