 Entering Link 1 = C:\Gaussian\l1.exe PID=      6192.
  
 Copyright (c) 1988-2017, Gaussian, Inc.  All Rights Reserved.
  
 This is part of the Gaussian(R) 16 program.  It is based on
 the Gaussian(R) 09 system (copyright 2009, Gaussian, Inc.),
 the Gaussian(R) 03 system (copyright 2003, Gaussian, Inc.),
 the Gaussian(R) 98 system (copyright 1998, Gaussian, Inc.),
 the Gaussian(R) 94 system (copyright 1995, Gaussian, Inc.),
 the Gaussian 92(TM) system (copyright 1992, Gaussian, Inc.),
 the Gaussian 90(TM) system (copyright 1990, Gaussian, Inc.),
 the Gaussian 88(TM) system (copyright 1988, Gaussian, Inc.),
 the Gaussian 86(TM) system (copyright 1986, Carnegie Mellon
 University), and the Gaussian 82(TM) system (copyright 1983,
 Carnegie Mellon University). Gaussian is a federally registered
 trademark of Gaussian, Inc.
  
 This software contains proprietary and confidential information,
 including trade secrets, belonging to Gaussian, Inc.
  
 This software is provided under written license and may be
 used, copied, transmitted, or stored only in accord with that
 written license.
  
 The following legend is applicable only to US Government
 contracts under FAR:
  
                    RESTRICTED RIGHTS LEGEND
  
 Use, reproduction and disclosure by the US Government is
 subject to restrictions as set forth in subparagraphs (a)
 and (c) of the Commercial Computer Software - Restricted
 Rights clause in FAR 52.227-19.
  
 Gaussian, Inc.
 340 Quinnipiac St., Bldg. 40, Wallingford CT 06492
  
  
 ---------------------------------------------------------------
 Warning -- This program may not be used in any manner that
 competes with the business of Gaussian, Inc. or will provide
 assistance to any competitor of Gaussian, Inc.  The licensee
 of this program is prohibited from giving any competitor of
 Gaussian, Inc. access to this program.  By using this program,
 the user acknowledges that Gaussian, Inc. is engaged in the
 business of creating and licensing software in the field of
 computational chemistry and represents and warrants to the
 licensee that it is not a competitor of Gaussian, Inc. and that
 it will not use this program in any manner prohibited above.
 ---------------------------------------------------------------
  

 Cite this work as:
 Gaussian 16, Revision B.01,
 M. J. Frisch, G. W. Trucks, H. B. Schlegel, G. E. Scuseria, 
 M. A. Robb, J. R. Cheeseman, G. Scalmani, V. Barone, 
 G. A. Petersson, H. Nakatsuji, X. Li, M. Caricato, A. V. Marenich, 
 J. Bloino, B. G. Janesko, R. Gomperts, B. Mennucci, H. P. Hratchian, 
 J. V. Ortiz, A. F. Izmaylov, J. L. Sonnenberg, D. Williams-Young, 
 F. Ding, F. Lipparini, F. Egidi, J. Goings, B. Peng, A. Petrone, 
 T. Henderson, D. Ranasinghe, V. G. Zakrzewski, J. Gao, N. Rega, 
 G. Zheng, W. Liang, M. Hada, M. Ehara, K. Toyota, R. Fukuda, 
 J. Hasegawa, M. Ishida, T. Nakajima, Y. Honda, O. Kitao, H. Nakai, 
 T. Vreven, K. Throssell, J. A. Montgomery, Jr., J. E. Peralta, 
 F. Ogliaro, M. J. Bearpark, J. J. Heyd, E. N. Brothers, K. N. Kudin, 
 V. N. Staroverov, T. A. Keith, R. Kobayashi, J. Normand, 
 K. Raghavachari, A. P. Rendell, J. C. Burant, S. S. Iyengar, 
 J. Tomasi, M. Cossi, J. M. Millam, M. Klene, C. Adamo, R. Cammi, 
 J. W. Ochterski, R. L. Martin, K. Morokuma, O. Farkas, 
 J. B. Foresman, and D. J. Fox, Gaussian, Inc., Wallingford CT, 2016.
 
 ******************************************
 Gaussian 16:  EM64W-G16RevB.01 16-Dec-2017
                14-Mar-2023 
 ******************************************
 %chk=C:\Users\tkmeldrum\Documents\MDworking\C18H38.chk
 -----------------------------------
 # opt b3lyp/6-31g geom=connectivity
 -----------------------------------
 1/18=20,19=15,26=3,38=1,57=2/1,3;
 2/9=110,12=2,17=6,18=5,40=1/2;
 3/5=1,6=6,11=2,25=1,30=1,71=1,74=-5/1,2,3;
 4//1;
 5/5=2,38=5/2;
 6/7=2,8=2,9=2,10=2,28=1/1;
 7//1,2,3,16;
 1/18=20,19=15,26=3/3(2);
 2/9=110/2;
 99//99;
 2/9=110/2;
 3/5=1,6=6,11=2,25=1,30=1,71=1,74=-5/1,2,3;
 4/5=5,16=3,69=1/1;
 5/5=2,38=5/2;
 7//1,2,3,16;
 1/18=20,19=15,26=3/3(-5);
 2/9=110/2;
 6/7=2,8=2,9=2,10=2,19=2,28=1/1;
 99/9=1/99;
 -------------------
 Title Card Required
 -------------------
 Symbolic Z-matrix:
 Charge =  0 Multiplicity = 1
 C                    -9.65409  -4.21408   0.00014 
 H                    -9.29905  -5.22346   0.00142 
 H                    -9.29581  -3.71108  -0.87366 
 H                    -10.72409  -4.21236  -0.00085 
 C                    -9.14075  -3.48776   1.25733 
 H                    -9.49579  -2.47838   1.25605 
 H                    -9.49903  -3.99076   2.13113 
 C                    -7.60075  -3.49023   1.25875 
 H                    -7.24247  -2.98723   0.38495 
 H                    -7.24571  -4.49961   1.26003 
 C                    -7.08741  -2.76391   2.51594 
 H                    -7.44569  -3.26691   3.38974 
 H                    -7.44245  -1.75453   2.51466 
 C                    -5.54741  -2.76639   2.51736 
 H                    -5.18913  -2.26338   1.64357 
 H                    -5.19237  -3.77576   2.51865 
 C                    -5.03407  -2.04006   3.77455 
 H                    -5.39235  -2.54306   4.64835 
 H                    -5.38911  -1.03068   3.77327 
 C                    -3.49407  -2.04253   3.77597 
 H                    -3.13579  -1.53954   2.90217 
 H                    -3.13902  -3.05191   3.77726 
 C                    -2.98072  -1.3162    5.03316 
 H                    -3.339    -1.8192    5.90696 
 H                    -3.33577  -0.30683   5.03188 
 C                    -1.44073  -1.31868   5.03458 
 H                    -1.08245  -0.81568   4.16078 
 H                    -1.08568  -2.32805   5.03587 
 C                    -0.92738  -0.59234   6.29177 
 H                    -1.28566  -1.09534   7.16557 
 H                    -1.28243   0.41704   6.29048 
 C                     0.61261  -0.59481   6.29318 
 H                     0.97089  -0.09181   5.41938 
 H                     0.96766  -1.60419   6.29447 
 C                     1.12596   0.13153   7.55036 
 H                     0.76768  -0.37147   8.42417 
 H                     0.77091   1.1409    7.54908 
 C                     2.66595   0.12906   7.55178 
 H                     3.02423   0.63206   6.67797 
 H                     3.021    -0.88031   7.55307 
 C                     3.1793    0.8554    8.80896 
 H                     2.82102   0.35241   9.68276 
 H                     2.82425   1.86478   8.80767 
 C                     4.71929   0.85294   8.81037 
 H                     5.07757   1.35594   7.93657 
 H                     5.07435  -0.15643   8.81166 
 C                     5.23264   1.57929   10.06755 
 H                     4.87436   1.07629   10.94136 
 H                     4.87759   2.58866   10.06626 
 C                     6.77264   1.57682   10.06896 
 H                     7.13091   2.07982   9.19516 
 H                     7.12769   0.56745   10.07026 
 C                     7.28598   2.30317   11.32614 
 H                     6.92771   1.80018   12.19995 
 H                     8.35598   2.30146   11.32712 
 H                     6.93093   3.31254   11.32485 
 

 GradGradGradGradGradGradGradGradGradGradGradGradGradGradGradGradGradGrad
 Berny optimization.
 Initialization pass.
                           ----------------------------
                           !    Initial Parameters    !
                           ! (Angstroms and Degrees)  !
 --------------------------                            --------------------------
 ! Name  Definition              Value          Derivative Info.                !
 --------------------------------------------------------------------------------
 ! R1    R(1,2)                  1.07           estimate D2E/DX2                !
 ! R2    R(1,3)                  1.07           estimate D2E/DX2                !
 ! R3    R(1,4)                  1.07           estimate D2E/DX2                !
 ! R4    R(1,5)                  1.54           estimate D2E/DX2                !
 ! R5    R(5,6)                  1.07           estimate D2E/DX2                !
 ! R6    R(5,7)                  1.07           estimate D2E/DX2                !
 ! R7    R(5,8)                  1.54           estimate D2E/DX2                !
 ! R8    R(8,9)                  1.07           estimate D2E/DX2                !
 ! R9    R(8,10)                 1.07           estimate D2E/DX2                !
 ! R10   R(8,11)                 1.54           estimate D2E/DX2                !
 ! R11   R(11,12)                1.07           estimate D2E/DX2                !
 ! R12   R(11,13)                1.07           estimate D2E/DX2                !
 ! R13   R(11,14)                1.54           estimate D2E/DX2                !
 ! R14   R(14,15)                1.07           estimate D2E/DX2                !
 ! R15   R(14,16)                1.07           estimate D2E/DX2                !
 ! R16   R(14,17)                1.54           estimate D2E/DX2                !
 ! R17   R(17,18)                1.07           estimate D2E/DX2                !
 ! R18   R(17,19)                1.07           estimate D2E/DX2                !
 ! R19   R(17,20)                1.54           estimate D2E/DX2                !
 ! R20   R(20,21)                1.07           estimate D2E/DX2                !
 ! R21   R(20,22)                1.07           estimate D2E/DX2                !
 ! R22   R(20,23)                1.54           estimate D2E/DX2                !
 ! R23   R(23,24)                1.07           estimate D2E/DX2                !
 ! R24   R(23,25)                1.07           estimate D2E/DX2                !
 ! R25   R(23,26)                1.54           estimate D2E/DX2                !
 ! R26   R(26,27)                1.07           estimate D2E/DX2                !
 ! R27   R(26,28)                1.07           estimate D2E/DX2                !
 ! R28   R(26,29)                1.54           estimate D2E/DX2                !
 ! R29   R(29,30)                1.07           estimate D2E/DX2                !
 ! R30   R(29,31)                1.07           estimate D2E/DX2                !
 ! R31   R(29,32)                1.54           estimate D2E/DX2                !
 ! R32   R(32,33)                1.07           estimate D2E/DX2                !
 ! R33   R(32,34)                1.07           estimate D2E/DX2                !
 ! R34   R(32,35)                1.54           estimate D2E/DX2                !
 ! R35   R(35,36)                1.07           estimate D2E/DX2                !
 ! R36   R(35,37)                1.07           estimate D2E/DX2                !
 ! R37   R(35,38)                1.54           estimate D2E/DX2                !
 ! R38   R(38,39)                1.07           estimate D2E/DX2                !
 ! R39   R(38,40)                1.07           estimate D2E/DX2                !
 ! R40   R(38,41)                1.54           estimate D2E/DX2                !
 ! R41   R(41,42)                1.07           estimate D2E/DX2                !
 ! R42   R(41,43)                1.07           estimate D2E/DX2                !
 ! R43   R(41,44)                1.54           estimate D2E/DX2                !
 ! R44   R(44,45)                1.07           estimate D2E/DX2                !
 ! R45   R(44,46)                1.07           estimate D2E/DX2                !
 ! R46   R(44,47)                1.54           estimate D2E/DX2                !
 ! R47   R(47,48)                1.07           estimate D2E/DX2                !
 ! R48   R(47,49)                1.07           estimate D2E/DX2                !
 ! R49   R(47,50)                1.54           estimate D2E/DX2                !
 ! R50   R(50,51)                1.07           estimate D2E/DX2                !
 ! R51   R(50,52)                1.07           estimate D2E/DX2                !
 ! R52   R(50,53)                1.54           estimate D2E/DX2                !
 ! R53   R(53,54)                1.07           estimate D2E/DX2                !
 ! R54   R(53,55)                1.07           estimate D2E/DX2                !
 ! R55   R(53,56)                1.07           estimate D2E/DX2                !
 ! A1    A(2,1,3)              109.4712         estimate D2E/DX2                !
 ! A2    A(2,1,4)              109.4712         estimate D2E/DX2                !
 ! A3    A(2,1,5)              109.4712         estimate D2E/DX2                !
 ! A4    A(3,1,4)              109.4712         estimate D2E/DX2                !
 ! A5    A(3,1,5)              109.4712         estimate D2E/DX2                !
 ! A6    A(4,1,5)              109.4712         estimate D2E/DX2                !
 ! A7    A(1,5,6)              109.4712         estimate D2E/DX2                !
 ! A8    A(1,5,7)              109.4712         estimate D2E/DX2                !
 ! A9    A(1,5,8)              109.4712         estimate D2E/DX2                !
 ! A10   A(6,5,7)              109.4712         estimate D2E/DX2                !
 ! A11   A(6,5,8)              109.4712         estimate D2E/DX2                !
 ! A12   A(7,5,8)              109.4712         estimate D2E/DX2                !
 ! A13   A(5,8,9)              109.4712         estimate D2E/DX2                !
 ! A14   A(5,8,10)             109.4712         estimate D2E/DX2                !
 ! A15   A(5,8,11)             109.4712         estimate D2E/DX2                !
 ! A16   A(9,8,10)             109.4712         estimate D2E/DX2                !
 ! A17   A(9,8,11)             109.4712         estimate D2E/DX2                !
 ! A18   A(10,8,11)            109.4712         estimate D2E/DX2                !
 ! A19   A(8,11,12)            109.4712         estimate D2E/DX2                !
 ! A20   A(8,11,13)            109.4712         estimate D2E/DX2                !
 ! A21   A(8,11,14)            109.4712         estimate D2E/DX2                !
 ! A22   A(12,11,13)           109.4712         estimate D2E/DX2                !
 ! A23   A(12,11,14)           109.4712         estimate D2E/DX2                !
 ! A24   A(13,11,14)           109.4712         estimate D2E/DX2                !
 ! A25   A(11,14,15)           109.4712         estimate D2E/DX2                !
 ! A26   A(11,14,16)           109.4712         estimate D2E/DX2                !
 ! A27   A(11,14,17)           109.4712         estimate D2E/DX2                !
 ! A28   A(15,14,16)           109.4712         estimate D2E/DX2                !
 ! A29   A(15,14,17)           109.4712         estimate D2E/DX2                !
 ! A30   A(16,14,17)           109.4712         estimate D2E/DX2                !
 ! A31   A(14,17,18)           109.4712         estimate D2E/DX2                !
 ! A32   A(14,17,19)           109.4712         estimate D2E/DX2                !
 ! A33   A(14,17,20)           109.4712         estimate D2E/DX2                !
 ! A34   A(18,17,19)           109.4712         estimate D2E/DX2                !
 ! A35   A(18,17,20)           109.4712         estimate D2E/DX2                !
 ! A36   A(19,17,20)           109.4712         estimate D2E/DX2                !
 ! A37   A(17,20,21)           109.4712         estimate D2E/DX2                !
 ! A38   A(17,20,22)           109.4712         estimate D2E/DX2                !
 ! A39   A(17,20,23)           109.4712         estimate D2E/DX2                !
 ! A40   A(21,20,22)           109.4712         estimate D2E/DX2                !
 ! A41   A(21,20,23)           109.4712         estimate D2E/DX2                !
 ! A42   A(22,20,23)           109.4712         estimate D2E/DX2                !
 ! A43   A(20,23,24)           109.4712         estimate D2E/DX2                !
 ! A44   A(20,23,25)           109.4712         estimate D2E/DX2                !
 ! A45   A(20,23,26)           109.4712         estimate D2E/DX2                !
 ! A46   A(24,23,25)           109.4712         estimate D2E/DX2                !
 ! A47   A(24,23,26)           109.4712         estimate D2E/DX2                !
 ! A48   A(25,23,26)           109.4712         estimate D2E/DX2                !
 ! A49   A(23,26,27)           109.4712         estimate D2E/DX2                !
 ! A50   A(23,26,28)           109.4712         estimate D2E/DX2                !
 ! A51   A(23,26,29)           109.4712         estimate D2E/DX2                !
 ! A52   A(27,26,28)           109.4712         estimate D2E/DX2                !
 ! A53   A(27,26,29)           109.4712         estimate D2E/DX2                !
 ! A54   A(28,26,29)           109.4712         estimate D2E/DX2                !
 ! A55   A(26,29,30)           109.4712         estimate D2E/DX2                !
 ! A56   A(26,29,31)           109.4712         estimate D2E/DX2                !
 ! A57   A(26,29,32)           109.4712         estimate D2E/DX2                !
 ! A58   A(30,29,31)           109.4712         estimate D2E/DX2                !
 ! A59   A(30,29,32)           109.4712         estimate D2E/DX2                !
 ! A60   A(31,29,32)           109.4712         estimate D2E/DX2                !
 ! A61   A(29,32,33)           109.4712         estimate D2E/DX2                !
 ! A62   A(29,32,34)           109.4712         estimate D2E/DX2                !
 ! A63   A(29,32,35)           109.4712         estimate D2E/DX2                !
 ! A64   A(33,32,34)           109.4712         estimate D2E/DX2                !
 ! A65   A(33,32,35)           109.4712         estimate D2E/DX2                !
 ! A66   A(34,32,35)           109.4712         estimate D2E/DX2                !
 ! A67   A(32,35,36)           109.4712         estimate D2E/DX2                !
 ! A68   A(32,35,37)           109.4712         estimate D2E/DX2                !
 ! A69   A(32,35,38)           109.4712         estimate D2E/DX2                !
 ! A70   A(36,35,37)           109.4712         estimate D2E/DX2                !
 ! A71   A(36,35,38)           109.4712         estimate D2E/DX2                !
 ! A72   A(37,35,38)           109.4712         estimate D2E/DX2                !
 ! A73   A(35,38,39)           109.4712         estimate D2E/DX2                !
 ! A74   A(35,38,40)           109.4712         estimate D2E/DX2                !
 ! A75   A(35,38,41)           109.4712         estimate D2E/DX2                !
 ! A76   A(39,38,40)           109.4712         estimate D2E/DX2                !
 ! A77   A(39,38,41)           109.4712         estimate D2E/DX2                !
 ! A78   A(40,38,41)           109.4712         estimate D2E/DX2                !
 ! A79   A(38,41,42)           109.4712         estimate D2E/DX2                !
 ! A80   A(38,41,43)           109.4712         estimate D2E/DX2                !
 ! A81   A(38,41,44)           109.4712         estimate D2E/DX2                !
 ! A82   A(42,41,43)           109.4712         estimate D2E/DX2                !
 ! A83   A(42,41,44)           109.4712         estimate D2E/DX2                !
 ! A84   A(43,41,44)           109.4712         estimate D2E/DX2                !
 ! A85   A(41,44,45)           109.4712         estimate D2E/DX2                !
 ! A86   A(41,44,46)           109.4712         estimate D2E/DX2                !
 ! A87   A(41,44,47)           109.4712         estimate D2E/DX2                !
 ! A88   A(45,44,46)           109.4712         estimate D2E/DX2                !
 ! A89   A(45,44,47)           109.4712         estimate D2E/DX2                !
 ! A90   A(46,44,47)           109.4712         estimate D2E/DX2                !
 ! A91   A(44,47,48)           109.4712         estimate D2E/DX2                !
 ! A92   A(44,47,49)           109.4712         estimate D2E/DX2                !
 ! A93   A(44,47,50)           109.4712         estimate D2E/DX2                !
 ! A94   A(48,47,49)           109.4712         estimate D2E/DX2                !
 ! A95   A(48,47,50)           109.4712         estimate D2E/DX2                !
 ! A96   A(49,47,50)           109.4712         estimate D2E/DX2                !
 ! A97   A(47,50,51)           109.4712         estimate D2E/DX2                !
 ! A98   A(47,50,52)           109.4712         estimate D2E/DX2                !
 ! A99   A(47,50,53)           109.4712         estimate D2E/DX2                !
 ! A100  A(51,50,52)           109.4712         estimate D2E/DX2                !
 ! A101  A(51,50,53)           109.4712         estimate D2E/DX2                !
 ! A102  A(52,50,53)           109.4712         estimate D2E/DX2                !
 ! A103  A(50,53,54)           109.4712         estimate D2E/DX2                !
 ! A104  A(50,53,55)           109.4712         estimate D2E/DX2                !
 ! A105  A(50,53,56)           109.4712         estimate D2E/DX2                !
 ! A106  A(54,53,55)           109.4712         estimate D2E/DX2                !
 ! A107  A(54,53,56)           109.4712         estimate D2E/DX2                !
 ! A108  A(55,53,56)           109.4712         estimate D2E/DX2                !
 ! D1    D(2,1,5,6)            180.0            estimate D2E/DX2                !
 ! D2    D(2,1,5,7)            -60.0            estimate D2E/DX2                !
 ! D3    D(2,1,5,8)             60.0            estimate D2E/DX2                !
 ! D4    D(3,1,5,6)             60.0            estimate D2E/DX2                !
 ! D5    D(3,1,5,7)            180.0            estimate D2E/DX2                !
 ! D6    D(3,1,5,8)            -60.0            estimate D2E/DX2                !
 ! D7    D(4,1,5,6)            -60.0            estimate D2E/DX2                !
 ! D8    D(4,1,5,7)             60.0            estimate D2E/DX2                !
 ! D9    D(4,1,5,8)            180.0            estimate D2E/DX2                !
 ! D10   D(1,5,8,9)             59.9999         estimate D2E/DX2                !
 ! D11   D(1,5,8,10)           -60.0001         estimate D2E/DX2                !
 ! D12   D(1,5,8,11)           179.9999         estimate D2E/DX2                !
 ! D13   D(6,5,8,9)            -60.0001         estimate D2E/DX2                !
 ! D14   D(6,5,8,10)           179.9999         estimate D2E/DX2                !
 ! D15   D(6,5,8,11)            59.9999         estimate D2E/DX2                !
 ! D16   D(7,5,8,9)            179.9999         estimate D2E/DX2                !
 ! D17   D(7,5,8,10)            59.9999         estimate D2E/DX2                !
 ! D18   D(7,5,8,11)           -60.0001         estimate D2E/DX2                !
 ! D19   D(5,8,11,12)           60.0            estimate D2E/DX2                !
 ! D20   D(5,8,11,13)          -60.0            estimate D2E/DX2                !
 ! D21   D(5,8,11,14)          180.0            estimate D2E/DX2                !
 ! D22   D(9,8,11,12)          180.0            estimate D2E/DX2                !
 ! D23   D(9,8,11,13)           60.0            estimate D2E/DX2                !
 ! D24   D(9,8,11,14)          -60.0            estimate D2E/DX2                !
 ! D25   D(10,8,11,12)         -60.0            estimate D2E/DX2                !
 ! D26   D(10,8,11,13)         180.0            estimate D2E/DX2                !
 ! D27   D(10,8,11,14)          60.0            estimate D2E/DX2                !
 ! D28   D(8,11,14,15)          59.9999         estimate D2E/DX2                !
 ! D29   D(8,11,14,16)         -60.0001         estimate D2E/DX2                !
 ! D30   D(8,11,14,17)         179.9999         estimate D2E/DX2                !
 ! D31   D(12,11,14,15)        179.9999         estimate D2E/DX2                !
 ! D32   D(12,11,14,16)         59.9999         estimate D2E/DX2                !
 ! D33   D(12,11,14,17)        -60.0001         estimate D2E/DX2                !
 ! D34   D(13,11,14,15)        -60.0001         estimate D2E/DX2                !
 ! D35   D(13,11,14,16)        179.9999         estimate D2E/DX2                !
 ! D36   D(13,11,14,17)         59.9999         estimate D2E/DX2                !
 ! D37   D(11,14,17,18)         60.0            estimate D2E/DX2                !
 ! D38   D(11,14,17,19)        -60.0            estimate D2E/DX2                !
 ! D39   D(11,14,17,20)       -180.0            estimate D2E/DX2                !
 ! D40   D(15,14,17,18)       -180.0            estimate D2E/DX2                !
 ! D41   D(15,14,17,19)         60.0            estimate D2E/DX2                !
 ! D42   D(15,14,17,20)        -60.0            estimate D2E/DX2                !
 ! D43   D(16,14,17,18)        -60.0            estimate D2E/DX2                !
 ! D44   D(16,14,17,19)       -180.0            estimate D2E/DX2                !
 ! D45   D(16,14,17,20)         60.0            estimate D2E/DX2                !
 ! D46   D(14,17,20,21)         59.9999         estimate D2E/DX2                !
 ! D47   D(14,17,20,22)        -60.0001         estimate D2E/DX2                !
 ! D48   D(14,17,20,23)        179.9998         estimate D2E/DX2                !
 ! D49   D(18,17,20,21)        179.9999         estimate D2E/DX2                !
 ! D50   D(18,17,20,22)         59.9999         estimate D2E/DX2                !
 ! D51   D(18,17,20,23)        -60.0001         estimate D2E/DX2                !
 ! D52   D(19,17,20,21)        -60.0001         estimate D2E/DX2                !
 ! D53   D(19,17,20,22)        179.9999         estimate D2E/DX2                !
 ! D54   D(19,17,20,23)         59.9999         estimate D2E/DX2                !
 ! D55   D(17,20,23,24)         60.0001         estimate D2E/DX2                !
 ! D56   D(17,20,23,25)        -59.9999         estimate D2E/DX2                !
 ! D57   D(17,20,23,26)       -179.9999         estimate D2E/DX2                !
 ! D58   D(21,20,23,24)       -179.9999         estimate D2E/DX2                !
 ! D59   D(21,20,23,25)         60.0001         estimate D2E/DX2                !
 ! D60   D(21,20,23,26)        -59.9999         estimate D2E/DX2                !
 ! D61   D(22,20,23,24)        -59.9999         estimate D2E/DX2                !
 ! D62   D(22,20,23,25)       -179.9999         estimate D2E/DX2                !
 ! D63   D(22,20,23,26)         60.0001         estimate D2E/DX2                !
 ! D64   D(20,23,26,27)         59.9998         estimate D2E/DX2                !
 ! D65   D(20,23,26,28)        -60.0002         estimate D2E/DX2                !
 ! D66   D(20,23,26,29)        179.9998         estimate D2E/DX2                !
 ! D67   D(24,23,26,27)        179.9999         estimate D2E/DX2                !
 ! D68   D(24,23,26,28)         59.9999         estimate D2E/DX2                !
 ! D69   D(24,23,26,29)        -60.0002         estimate D2E/DX2                !
 ! D70   D(25,23,26,27)        -60.0001         estimate D2E/DX2                !
 ! D71   D(25,23,26,28)        179.9999         estimate D2E/DX2                !
 ! D72   D(25,23,26,29)         59.9998         estimate D2E/DX2                !
 ! D73   D(23,26,29,30)         60.0001         estimate D2E/DX2                !
 ! D74   D(23,26,29,31)        -59.9999         estimate D2E/DX2                !
 ! D75   D(23,26,29,32)       -179.9998         estimate D2E/DX2                !
 ! D76   D(27,26,29,30)       -179.9999         estimate D2E/DX2                !
 ! D77   D(27,26,29,31)         60.0001         estimate D2E/DX2                !
 ! D78   D(27,26,29,32)        -59.9999         estimate D2E/DX2                !
 ! D79   D(28,26,29,30)        -59.9999         estimate D2E/DX2                !
 ! D80   D(28,26,29,31)       -179.9999         estimate D2E/DX2                !
 ! D81   D(28,26,29,32)         60.0001         estimate D2E/DX2                !
 ! D82   D(26,29,32,33)         59.9999         estimate D2E/DX2                !
 ! D83   D(26,29,32,34)        -60.0001         estimate D2E/DX2                !
 ! D84   D(26,29,32,35)        179.9998         estimate D2E/DX2                !
 ! D85   D(30,29,32,33)        179.9999         estimate D2E/DX2                !
 ! D86   D(30,29,32,34)         59.9999         estimate D2E/DX2                !
 ! D87   D(30,29,32,35)        -60.0001         estimate D2E/DX2                !
 ! D88   D(31,29,32,33)        -60.0001         estimate D2E/DX2                !
 ! D89   D(31,29,32,34)        179.9999         estimate D2E/DX2                !
 ! D90   D(31,29,32,35)         59.9999         estimate D2E/DX2                !
 ! D91   D(29,32,35,36)         60.0001         estimate D2E/DX2                !
 ! D92   D(29,32,35,37)        -59.9999         estimate D2E/DX2                !
 ! D93   D(29,32,35,38)       -179.9999         estimate D2E/DX2                !
 ! D94   D(33,32,35,36)       -179.9999         estimate D2E/DX2                !
 ! D95   D(33,32,35,37)         60.0001         estimate D2E/DX2                !
 ! D96   D(33,32,35,38)        -59.9999         estimate D2E/DX2                !
 ! D97   D(34,32,35,36)        -59.9999         estimate D2E/DX2                !
 ! D98   D(34,32,35,37)       -179.9999         estimate D2E/DX2                !
 ! D99   D(34,32,35,38)         60.0001         estimate D2E/DX2                !
 ! D100  D(32,35,38,39)         59.9999         estimate D2E/DX2                !
 ! D101  D(32,35,38,40)        -60.0001         estimate D2E/DX2                !
 ! D102  D(32,35,38,41)        179.9999         estimate D2E/DX2                !
 ! D103  D(36,35,38,39)        179.9999         estimate D2E/DX2                !
 ! D104  D(36,35,38,40)         59.9999         estimate D2E/DX2                !
 ! D105  D(36,35,38,41)        -60.0001         estimate D2E/DX2                !
 ! D106  D(37,35,38,39)        -60.0001         estimate D2E/DX2                !
 ! D107  D(37,35,38,40)        179.9999         estimate D2E/DX2                !
 ! D108  D(37,35,38,41)         59.9999         estimate D2E/DX2                !
 ! D109  D(35,38,41,42)         60.0001         estimate D2E/DX2                !
 ! D110  D(35,38,41,43)        -59.9999         estimate D2E/DX2                !
 ! D111  D(35,38,41,44)       -179.9999         estimate D2E/DX2                !
 ! D112  D(39,38,41,42)       -179.9999         estimate D2E/DX2                !
 ! D113  D(39,38,41,43)         60.0001         estimate D2E/DX2                !
 ! D114  D(39,38,41,44)        -59.9999         estimate D2E/DX2                !
 ! D115  D(40,38,41,42)        -59.9999         estimate D2E/DX2                !
 ! D116  D(40,38,41,43)       -179.9999         estimate D2E/DX2                !
 ! D117  D(40,38,41,44)         60.0001         estimate D2E/DX2                !
 ! D118  D(38,41,44,45)         59.9999         estimate D2E/DX2                !
 ! D119  D(38,41,44,46)        -60.0001         estimate D2E/DX2                !
 ! D120  D(38,41,44,47)        179.9999         estimate D2E/DX2                !
 ! D121  D(42,41,44,45)        179.9999         estimate D2E/DX2                !
 ! D122  D(42,41,44,46)         59.9999         estimate D2E/DX2                !
 ! D123  D(42,41,44,47)        -60.0001         estimate D2E/DX2                !
 ! D124  D(43,41,44,45)        -60.0001         estimate D2E/DX2                !
 ! D125  D(43,41,44,46)        179.9999         estimate D2E/DX2                !
 ! D126  D(43,41,44,47)         59.9999         estimate D2E/DX2                !
 ! D127  D(41,44,47,48)         60.0            estimate D2E/DX2                !
 ! D128  D(41,44,47,49)        -60.0            estimate D2E/DX2                !
 ! D129  D(41,44,47,50)       -180.0            estimate D2E/DX2                !
 ! D130  D(45,44,47,48)        180.0            estimate D2E/DX2                !
 ! D131  D(45,44,47,49)         60.0            estimate D2E/DX2                !
 ! D132  D(45,44,47,50)        -60.0            estimate D2E/DX2                !
 ! D133  D(46,44,47,48)        -60.0            estimate D2E/DX2                !
 ! D134  D(46,44,47,49)        180.0            estimate D2E/DX2                !
 ! D135  D(46,44,47,50)         60.0            estimate D2E/DX2                !
 ! D136  D(44,47,50,51)         59.9999         estimate D2E/DX2                !
 ! D137  D(44,47,50,52)        -60.0001         estimate D2E/DX2                !
 ! D138  D(44,47,50,53)        179.9999         estimate D2E/DX2                !
 ! D139  D(48,47,50,51)        179.9999         estimate D2E/DX2                !
 ! D140  D(48,47,50,52)         59.9999         estimate D2E/DX2                !
 ! D141  D(48,47,50,53)        -60.0001         estimate D2E/DX2                !
 ! D142  D(49,47,50,51)        -60.0001         estimate D2E/DX2                !
 ! D143  D(49,47,50,52)        179.9999         estimate D2E/DX2                !
 ! D144  D(49,47,50,53)         59.9999         estimate D2E/DX2                !
 ! D145  D(47,50,53,54)         60.0            estimate D2E/DX2                !
 ! D146  D(47,50,53,55)        180.0            estimate D2E/DX2                !
 ! D147  D(47,50,53,56)        -60.0            estimate D2E/DX2                !
 ! D148  D(51,50,53,54)        180.0            estimate D2E/DX2                !
 ! D149  D(51,50,53,55)        -60.0            estimate D2E/DX2                !
 ! D150  D(51,50,53,56)         60.0            estimate D2E/DX2                !
 ! D151  D(52,50,53,54)        -60.0            estimate D2E/DX2                !
 ! D152  D(52,50,53,55)         60.0            estimate D2E/DX2                !
 ! D153  D(52,50,53,56)        180.0            estimate D2E/DX2                !
 --------------------------------------------------------------------------------
 Trust Radius=3.00D-01 FncErr=1.00D-07 GrdErr=1.00D-06 EigMax=2.50D+02 EigMin=1.00D-04
 Number of steps in this run=    326 maximum allowed number of steps=    336.
 GradGradGradGradGradGradGradGradGradGradGradGradGradGradGradGradGradGrad

 Stoichiometry    C18H38
 Framework group  C1[X(C18H38)]
 Deg. of freedom   162
 Full point group                 C1      NOp   1
 Largest Abelian subgroup         C1      NOp   1
 Largest concise Abelian subgroup C1      NOp   1
                         Standard orientation:                         
 ---------------------------------------------------------------------
 Center     Atomic      Atomic             Coordinates (Angstroms)
 Number     Number       Type             X           Y           Z
 ---------------------------------------------------------------------
      1          6           0      -10.691129   -0.359799   -0.000036
      2          1           0      -10.696035   -0.977548    0.873613
      3          1           0      -10.696021   -0.977541   -0.873689
      4          1           0      -11.559855    0.264874   -0.000041
      5          6           0       -9.426714    0.519322   -0.000023
      6          1           0       -9.421809    1.137070   -0.873672
      7          1           0       -9.421823    1.137065    0.873631
      8          6           0       -8.176399   -0.379740   -0.000015
      9          1           0       -8.181291   -0.997483   -0.873668
     10          1           0       -8.181304   -0.997487    0.873634
     11          6           0       -6.911984    0.499382   -0.000004
     12          1           0       -6.907092    1.117125    0.873649
     13          1           0       -6.907079    1.117129   -0.873654
     14          6           0       -5.661668   -0.399680    0.000003
     15          1           0       -5.666561   -1.017424   -0.873649
     16          1           0       -5.666572   -1.017426    0.873654
     17          6           0       -4.397253    0.479441    0.000012
     18          1           0       -4.392360    1.097186    0.873664
     19          1           0       -4.392350    1.097188   -0.873639
     20          6           0       -3.146938   -0.419620    0.000018
     21          1           0       -3.151833   -1.037366   -0.873633
     22          1           0       -3.151840   -1.037365    0.873670
     23          6           0       -1.882523    0.459501    0.000023
     24          1           0       -1.877627    1.077246    0.873675
     25          1           0       -1.877622    1.077247   -0.873628
     26          6           0       -0.632208   -0.439561    0.000025
     27          1           0       -0.637105   -1.057307   -0.873625
     28          1           0       -0.637107   -1.057305    0.873677
     29          6           0        0.632208    0.439561    0.000025
     30          1           0        0.637107    1.057306    0.873676
     31          1           0        0.637105    1.057306   -0.873626
     32          6           0        1.882523   -0.459501    0.000023
     33          1           0        1.877622   -1.077247   -0.873627
     34          1           0        1.877627   -1.077245    0.873675
     35          6           0        3.146938    0.419620    0.000018
     36          1           0        3.151840    1.037366    0.873670
     37          1           0        3.151833    1.037366   -0.873633
     38          6           0        4.397253   -0.479441    0.000013
     39          1           0        4.392350   -1.097188   -0.873637
     40          1           0        4.392359   -1.097186    0.873665
     41          6           0        5.661668    0.399680    0.000005
     42          1           0        5.666573    1.017425    0.873657
     43          1           0        5.666561    1.017425   -0.873646
     44          6           0        6.911984   -0.499382   -0.000003
     45          1           0        6.907078   -1.117128   -0.873654
     46          1           0        6.907092   -1.117126    0.873649
     47          6           0        8.176399    0.379740   -0.000015
     48          1           0        8.181305    0.997486    0.873636
     49          1           0        8.181290    0.997484   -0.873667
     50          6           0        9.426714   -0.519322   -0.000024
     51          1           0        9.421808   -1.137070   -0.873674
     52          1           0        9.421823   -1.137066    0.873629
     53          6           0       10.691129    0.359799   -0.000037
     54          1           0       10.696035    0.977547    0.873613
     55          1           0       11.559855   -0.264874   -0.000043
     56          1           0       10.696020    0.977542   -0.873690
 ---------------------------------------------------------------------
 Rotational constants (GHZ):           4.5614819           0.0458016           0.0455728
 Standard basis: 6-31G (6D, 7F)
 There are   238 symmetry adapted cartesian basis functions of A   symmetry.
 There are   238 symmetry adapted basis functions of A   symmetry.
   238 basis functions,   548 primitive gaussians,   238 cartesian basis functions
    73 alpha electrons       73 beta electrons
       nuclear repulsion energy      1193.6196581097 Hartrees.
 NAtoms=   56 NActive=   56 NUniq=   56 SFac= 1.00D+00 NAtFMM=   60 NAOKFM=F Big=F
 Integral buffers will be    131072 words long.
 Raffenetti 2 integral format.
 Two-electron integral symmetry is turned on.
 One-electron integrals computed using PRISM.
 NBasis=   238 RedAO= T EigKep=  2.98D-03  NBF=   238
 NBsUse=   238 1.00D-06 EigRej= -1.00D+00 NBFU=   238
 ExpMin= 1.61D-01 ExpMax= 3.05D+03 ExpMxC= 4.57D+02 IAcc=3 IRadAn=         5 AccDes= 0.00D+00
 Harris functional with IExCor=  402 and IRadAn=       5 diagonalized for initial guess.
 HarFok:  IExCor=  402 AccDes= 0.00D+00 IRadAn=         5 IDoV= 1 UseB2=F ITyADJ=14
 ICtDFT=  3500011 ScaDFX=  1.000000  1.000000  1.000000  1.000000
 FoFCou: FMM=F IPFlag=           0 FMFlag=      100000 FMFlg1=           0
         NFxFlg=           0 DoJE=T BraDBF=F KetDBF=T FulRan=T
         wScrn=  0.000000 ICntrl=       500 IOpCl=  0 I1Cent=   200000004 NGrid=           0
         NMat0=    1 NMatS0=      1 NMatT0=    0 NMatD0=    1 NMtDS0=    0 NMtDT0=    0
 Petite list used in FoFCou.
 Requested convergence on RMS density matrix=1.00D-08 within 128 cycles.
 Requested convergence on MAX density matrix=1.00D-06.
 Requested convergence on             energy=1.00D-06.
 No special actions if energy rises.
 Integral accuracy reduced to 1.0D-05 until final iterations.
 Initial convergence to 1.0D-05 achieved.  Increase integral accuracy.
 SCF Done:  E(RB3LYP) =  -708.642066965     A.U. after   11 cycles
            NFock= 11  Conv=0.62D-08     -V/T= 2.0035

 **********************************************************************

            Population analysis using the SCF Density.

 **********************************************************************

 Orbital symmetries:
       Occupied  (A) (A) (A) (A) (A) (A) (A) (A) (A) (A) (A) (A)
                 (A) (A) (A) (A) (A) (A) (A) (A) (A) (A) (A) (A)
                 (A) (A) (A) (A) (A) (A) (A) (A) (A) (A) (A) (A)
                 (A) (A) (A) (A) (A) (A) (A) (A) (A) (A) (A) (A)
                 (A) (A) (A) (A) (A) (A) (A) (A) (A) (A) (A) (A)
                 (A) (A) (A) (A) (A) (A) (A) (A) (A) (A) (A) (A)
                 (A)
       Virtual   (A) (A) (A) (A) (A) (A) (A) (A) (A) (A) (A) (A)
                 (A) (A) (A) (A) (A) (A) (A) (A) (A) (A) (A) (A)
                 (A) (A) (A) (A) (A) (A) (A) (A) (A) (A) (A) (A)
                 (A) (A) (A) (A) (A) (A) (A) (A) (A) (A) (A) (A)
                 (A) (A) (A) (A) (A) (A) (A) (A) (A) (A) (A) (A)
                 (A) (A) (A) (A) (A) (A) (A) (A) (A) (A) (A) (A)
                 (A) (A) (A) (A) (A) (A) (A) (A) (A) (A) (A) (A)
                 (A) (A) (A) (A) (A) (A) (A) (A) (A) (A) (A) (A)
                 (A) (A) (A) (A) (A) (A) (A) (A) (A) (A) (A) (A)
                 (A) (A) (A) (A) (A) (A) (A) (A) (A) (A) (A) (A)
                 (A) (A) (A) (A) (A) (A) (A) (A) (A) (A) (A) (A)
                 (A) (A) (A) (A) (A) (A) (A) (A) (A) (A) (A) (A)
                 (A) (A) (A) (A) (A) (A) (A) (A) (A) (A) (A) (A)
                 (A) (A) (A) (A) (A) (A) (A) (A) (A)
 The electronic state is 1-A.
 Alpha  occ. eigenvalues --  -10.16075 -10.16075 -10.15812 -10.15812 -10.15752
 Alpha  occ. eigenvalues --  -10.15752 -10.15726 -10.15726 -10.15702 -10.15702
 Alpha  occ. eigenvalues --  -10.15689 -10.15689 -10.15683 -10.15678 -10.15671
 Alpha  occ. eigenvalues --  -10.15664 -10.15239 -10.15239  -0.81543  -0.81016
 Alpha  occ. eigenvalues --   -0.80091  -0.78799  -0.77161  -0.75195  -0.72927
 Alpha  occ. eigenvalues --   -0.70393  -0.67649  -0.64786  -0.61977  -0.59539
 Alpha  occ. eigenvalues --   -0.58456  -0.58229  -0.57819  -0.57718  -0.57140
 Alpha  occ. eigenvalues --   -0.57058  -0.49446  -0.48955  -0.48106  -0.46943
 Alpha  occ. eigenvalues --   -0.45510  -0.43857  -0.42922  -0.42612  -0.42052
 Alpha  occ. eigenvalues --   -0.41966  -0.40795  -0.40473  -0.40177  -0.39071
 Alpha  occ. eigenvalues --   -0.38330  -0.37626  -0.37321  -0.36618  -0.35695
 Alpha  occ. eigenvalues --   -0.35147  -0.34373  -0.34166  -0.34002  -0.33325
 Alpha  occ. eigenvalues --   -0.33224  -0.32809  -0.32717  -0.32698  -0.32653
 Alpha  occ. eigenvalues --   -0.32557  -0.32550  -0.32271  -0.32071  -0.31966
 Alpha  occ. eigenvalues --   -0.30726  -0.27667  -0.25472
 Alpha virt. eigenvalues --    0.08780   0.09133   0.09694   0.10359   0.11091
 Alpha virt. eigenvalues --    0.11687   0.11997   0.12390   0.12863   0.13261
 Alpha virt. eigenvalues --    0.13591   0.13608   0.14633   0.15241   0.15292
 Alpha virt. eigenvalues --    0.16244   0.17234   0.17606   0.17896   0.18579
 Alpha virt. eigenvalues --    0.18942   0.19228   0.20100   0.20427   0.20526
 Alpha virt. eigenvalues --    0.20701   0.20714   0.20836   0.20951   0.21063
 Alpha virt. eigenvalues --    0.21428   0.21689   0.21913   0.21969   0.22475
 Alpha virt. eigenvalues --    0.22722   0.23125   0.23166   0.23216   0.23426
 Alpha virt. eigenvalues --    0.23899   0.24414   0.24428   0.24510   0.24856
 Alpha virt. eigenvalues --    0.26204   0.26280   0.26974   0.28036   0.28070
 Alpha virt. eigenvalues --    0.29080   0.32018   0.32136   0.37059   0.37097
 Alpha virt. eigenvalues --    0.47139   0.49433   0.52290   0.54399   0.55207
 Alpha virt. eigenvalues --    0.55501   0.56638   0.57400   0.57410   0.57958
 Alpha virt. eigenvalues --    0.59061   0.59228   0.59335   0.59563   0.59833
 Alpha virt. eigenvalues --    0.60192   0.60906   0.60929   0.62164   0.63406
 Alpha virt. eigenvalues --    0.63577   0.64830   0.66029   0.67119   0.67332
 Alpha virt. eigenvalues --    0.68622   0.68820   0.69758   0.71414   0.71879
 Alpha virt. eigenvalues --    0.72140   0.72915   0.73340   0.74426   0.75911
 Alpha virt. eigenvalues --    0.76769   0.77265   0.78438   0.80342   0.81169
 Alpha virt. eigenvalues --    0.81475   0.83409   0.83871   0.84518   0.84914
 Alpha virt. eigenvalues --    0.85360   0.85933   0.85952   0.87496   0.89660
 Alpha virt. eigenvalues --    0.89711   0.90351   0.91309   0.91480   0.93089
 Alpha virt. eigenvalues --    0.94034   0.95152   0.96582   0.96880   0.97326
 Alpha virt. eigenvalues --    0.97550   0.97589   0.99409   0.99597   1.00015
 Alpha virt. eigenvalues --    1.00827   1.02231   1.02243   1.02947   1.03165
 Alpha virt. eigenvalues --    1.03254   1.03473   1.03587   1.03845   1.04234
 Alpha virt. eigenvalues --    1.04241   1.04639   1.04705   1.05244   1.05400
 Alpha virt. eigenvalues --    1.05475   1.06091   1.07390   1.07517   1.08750
 Alpha virt. eigenvalues --    1.11879   1.16680   1.18942   1.20148   1.22883
 Alpha virt. eigenvalues --    1.26573   1.29626   1.32113   1.36568   1.40313
 Alpha virt. eigenvalues --    1.41702   1.43613   1.46491   1.48825   1.50570
 Alpha virt. eigenvalues --    1.51608   1.52079   1.52526   1.55591   1.58482
 Alpha virt. eigenvalues --    1.62975   1.75405   1.91132   2.04863   2.11978
          Condensed to atoms (all electrons):
 Mulliken charges:
               1
     1  C   -0.403621
     2  H    0.130611
     3  H    0.130611
     4  H    0.126910
     5  C   -0.240301
     6  H    0.122775
     7  H    0.122775
     8  C   -0.230728
     9  H    0.119327
    10  H    0.119327
    11  C   -0.237503
    12  H    0.119396
    13  H    0.119396
    14  C   -0.238018
    15  H    0.119108
    16  H    0.119108
    17  C   -0.237569
    18  H    0.118964
    19  H    0.118964
    20  C   -0.237551
    21  H    0.118874
    22  H    0.118874
    23  C   -0.237526
    24  H    0.118837
    25  H    0.118837
    26  C   -0.237511
    27  H    0.118818
    28  H    0.118818
    29  C   -0.237511
    30  H    0.118818
    31  H    0.118818
    32  C   -0.237526
    33  H    0.118837
    34  H    0.118837
    35  C   -0.237551
    36  H    0.118874
    37  H    0.118874
    38  C   -0.237569
    39  H    0.118964
    40  H    0.118964
    41  C   -0.238018
    42  H    0.119108
    43  H    0.119108
    44  C   -0.237503
    45  H    0.119396
    46  H    0.119396
    47  C   -0.230728
    48  H    0.119327
    49  H    0.119327
    50  C   -0.240301
    51  H    0.122775
    52  H    0.122775
    53  C   -0.403621
    54  H    0.130611
    55  H    0.126910
    56  H    0.130611
 Sum of Mulliken charges =   0.00000
 Mulliken charges with hydrogens summed into heavy atoms:
               1
     1  C   -0.015490
     5  C    0.005248
     8  C    0.007926
    11  C    0.001289
    14  C    0.000199
    17  C    0.000358
    20  C    0.000197
    23  C    0.000148
    26  C    0.000125
    29  C    0.000125
    32  C    0.000148
    35  C    0.000197
    38  C    0.000358
    41  C    0.000199
    44  C    0.001289
    47  C    0.007926
    50  C    0.005248
    53  C   -0.015490
 Electronic spatial extent (au):  <R**2>=          23431.9390
 Charge=              0.0000 electrons
 Dipole moment (field-independent basis, Debye):
    X=              0.0000    Y=              0.0000    Z=              0.0000  Tot=              0.0000
 Quadrupole moment (field-independent basis, Debye-Ang):
   XX=           -127.9333   YY=           -122.0710   ZZ=           -117.6651
   XY=             -0.9649   XZ=              0.0000   YZ=              0.0000
 Traceless Quadrupole moment (field-independent basis, Debye-Ang):
   XX=             -5.3769   YY=              0.4855   ZZ=              4.8914
   XY=             -0.9649   XZ=              0.0000   YZ=              0.0000
 Octapole moment (field-independent basis, Debye-Ang**2):
  XXX=              0.0000  YYY=              0.0000  ZZZ=              0.0000  XYY=              0.0000
  XXY=              0.0000  XXZ=              0.0008  XZZ=              0.0000  YZZ=              0.0000
  YYZ=              0.0000  XYZ=              0.0001
 Hexadecapole moment (field-independent basis, Debye-Ang**3):
 XXXX=         -33368.9867 YYYY=           -433.2223 ZZZZ=           -241.8079 XXXY=           -198.9974
 XXXZ=              0.0002 YYYX=             -1.0464 YYYZ=              0.0000 ZZZX=              0.0000
 ZZZY=              0.0000 XXYY=          -5427.1188 XXZZ=          -5233.0623 YYZZ=           -103.9797
 XXYZ=              0.0000 YYXZ=              0.0000 ZZXY=              4.0545
 N-N= 1.193619658110D+03 E-N=-4.027665102817D+03  KE= 7.061394031049D+02
 Calling FoFJK, ICntrl=      2127 FMM=F ISym2X=0 I1Cent= 0 IOpClX= 0 NMat=1 NMatS=1 NMatT=0.
 ***** Axes restored to original set *****
 -------------------------------------------------------------------
 Center     Atomic                   Forces (Hartrees/Bohr)
 Number     Number              X              Y              Z
 -------------------------------------------------------------------
      1        6          -0.000056305    0.012034569    0.020798893
      2        1           0.004415561   -0.017594118   -0.002944289
      3        1           0.004466533    0.006201412   -0.016712595
      4        1          -0.018441817   -0.002685085   -0.004708843
      5        6           0.017456981   -0.016822688   -0.029009713
      6        1          -0.007364772    0.017711110    0.003098901
      7        1          -0.007415836   -0.006116223    0.016885629
      8        6          -0.025811390    0.017347408    0.029885516
      9        1           0.007780278    0.006715462   -0.016781385
     10        1           0.007727503   -0.017920579   -0.002526707
     11        6           0.024773406   -0.017822486   -0.030710422
     12        1          -0.007819655   -0.006711587    0.016636603
     13        1          -0.007767144    0.017793222    0.002457834
     14        6          -0.025204029    0.017813265    0.030692823
     15        1           0.007847313    0.006725757   -0.016642784
     16        1           0.007794762   -0.017805757   -0.002448518
     17        6           0.025150211   -0.017885927   -0.030818541
     18        1          -0.007833743   -0.006725972    0.016650644
     19        1          -0.007781177    0.017812622    0.002452287
     20        6          -0.025213169    0.017881080    0.030809813
     21        1           0.007837503    0.006728363   -0.016650884
     22        1           0.007784951   -0.017814097   -0.002450244
     23        6           0.025199041   -0.017894835   -0.030833620
     24        1          -0.007835472   -0.006727875    0.016652780
     25        1          -0.007782992    0.017815479    0.002451641
     26        6          -0.025210778    0.017893989    0.030832230
     27        1           0.007836412    0.006728320   -0.016652668
     28        1           0.007783909   -0.017815503   -0.002451085
     29        6           0.025210788   -0.017893984   -0.030832216
     30        1          -0.007836372   -0.006728338    0.016652661
     31        1          -0.007783947    0.017815491    0.002451104
     32        6          -0.025199057    0.017894838    0.030833643
     33        1           0.007835433    0.006727828   -0.016652859
     34        1           0.007783044   -0.017815452   -0.002451554
     35        6           0.025213169   -0.017881072   -0.030809841
     36        1          -0.007837419   -0.006728363    0.016650985
     37        1          -0.007785052    0.017814016    0.002450184
     38        6          -0.025150221    0.017886000    0.030818527
     39        1           0.007833635    0.006725877   -0.016650728
     40        1           0.007781301   -0.017812612   -0.002452159
     41        6           0.025203980   -0.017813321   -0.030692808
     42        1          -0.007847170   -0.006725687    0.016642867
     43        1          -0.007794905    0.017805698    0.002448412
     44        6          -0.024773360    0.017822647    0.030710336
     45        1           0.007819487    0.006711433   -0.016636684
     46        1           0.007767317   -0.017793202   -0.002457654
     47        6           0.025811387   -0.017347496   -0.029885467
     48        1          -0.007780145   -0.006715350    0.016781539
     49        1          -0.007727647    0.017920501    0.002526523
     50        6          -0.017456994    0.016822970    0.029009593
     51        1           0.007415689    0.006116056   -0.016885782
     52        1           0.007364950   -0.017711126   -0.003098676
     53        6           0.000056311   -0.012034880   -0.020798706
     54        1          -0.004466374   -0.006201203    0.016712696
     55        1           0.018441787    0.002685307    0.004708717
     56        1          -0.004415700    0.017594098    0.002944046
 -------------------------------------------------------------------
 Cartesian Forces:  Max     0.030833643 RMS     0.016342653

 GradGradGradGradGradGradGradGradGradGradGradGradGradGradGradGradGradGrad
 Berny optimization.
 FormGI is forming the generalized inverse of G from B-inverse, IUseBI=4.
 Internal  Forces:  Max     0.019466299 RMS     0.008068986
 Search for a local minimum.
 Step number   1 out of a maximum of  326
 All quantities printed in internal units (Hartrees-Bohrs-Radians)
 Mixed Optimization -- RFO/linear search
 Second derivative matrix not updated -- first step.
 ITU=  0
     Eigenvalues ---    0.00237   0.00237   0.00237   0.00237   0.00237
     Eigenvalues ---    0.00237   0.00237   0.00237   0.00237   0.00237
     Eigenvalues ---    0.00237   0.00237   0.00237   0.00237   0.00237
     Eigenvalues ---    0.00237   0.00237   0.03840   0.03840   0.03840
     Eigenvalues ---    0.03840   0.03840   0.03840   0.03840   0.03840
     Eigenvalues ---    0.03840   0.03840   0.03840   0.03840   0.03840
     Eigenvalues ---    0.03840   0.03840   0.03840   0.04896   0.04896
     Eigenvalues ---    0.04896   0.04896   0.04896   0.04896   0.04896
     Eigenvalues ---    0.04896   0.04896   0.04896   0.04896   0.04896
     Eigenvalues ---    0.04896   0.04896   0.04896   0.04896   0.05720
     Eigenvalues ---    0.05720   0.05720   0.05720   0.07655   0.07655
     Eigenvalues ---    0.07655   0.07655   0.07655   0.07655   0.07655
     Eigenvalues ---    0.07655   0.07655   0.07655   0.07655   0.07655
     Eigenvalues ---    0.07655   0.07655   0.07655   0.07655   0.11701
     Eigenvalues ---    0.11701   0.11701   0.11701   0.11701   0.11701
     Eigenvalues ---    0.11701   0.11701   0.11701   0.11701   0.11701
     Eigenvalues ---    0.11701   0.11701   0.11701   0.11701   0.11701
     Eigenvalues ---    0.16000   0.16000   0.16000   0.16000   0.16000
     Eigenvalues ---    0.16000   0.21948   0.21948   0.21948   0.21948
     Eigenvalues ---    0.21948   0.21948   0.21948   0.21948   0.21948
     Eigenvalues ---    0.21948   0.21948   0.21948   0.21948   0.21948
     Eigenvalues ---    0.21948   0.21948   0.28519   0.28519   0.28519
     Eigenvalues ---    0.28519   0.28519   0.28519   0.28519   0.28519
     Eigenvalues ---    0.28519   0.28519   0.28519   0.28519   0.28519
     Eigenvalues ---    0.28519   0.28519   0.28519   0.28519   0.37230
     Eigenvalues ---    0.37230   0.37230   0.37230   0.37230   0.37230
     Eigenvalues ---    0.37230   0.37230   0.37230   0.37230   0.37230
     Eigenvalues ---    0.37230   0.37230   0.37230   0.37230   0.37230
     Eigenvalues ---    0.37230   0.37230   0.37230   0.37230   0.37230
     Eigenvalues ---    0.37230   0.37230   0.37230   0.37230   0.37230
     Eigenvalues ---    0.37230   0.37230   0.37230   0.37230   0.37230
     Eigenvalues ---    0.37230   0.37230   0.37230   0.37230   0.37230
     Eigenvalues ---    0.37230   0.37230
 RFO step:  Lambda=-5.90894855D-02 EMin= 2.36823054D-03
 Linear search not attempted -- first point.
 Maximum step size (   0.300) exceeded in Quadratic search.
    -- Step size scaled by   0.759
 Iteration  1 RMS(Cart)=  0.12040174 RMS(Int)=  0.00026515
 Iteration  2 RMS(Cart)=  0.00099344 RMS(Int)=  0.00007085
 Iteration  3 RMS(Cart)=  0.00000026 RMS(Int)=  0.00007085
 Variable       Old X    -DE/DX   Delta X   Delta X   Delta X     New X
                                 (Linear)    (Quad)   (Total)
    R1        2.02201   0.01806   0.00000   0.03176   0.03176   2.05377
    R2        2.02201   0.01806   0.00000   0.03176   0.03176   2.05377
    R3        2.02201   0.01844   0.00000   0.03243   0.03243   2.05444
    R4        2.91018   0.00708   0.00000   0.01560   0.01560   2.92578
    R5        2.02201   0.01915   0.00000   0.03367   0.03367   2.05568
    R6        2.02201   0.01915   0.00000   0.03367   0.03367   2.05568
    R7        2.91018   0.00694   0.00000   0.01529   0.01529   2.92547
    R8        2.02201   0.01947   0.00000   0.03423   0.03423   2.05624
    R9        2.02201   0.01947   0.00000   0.03423   0.03423   2.05624
   R10        2.91018   0.00792   0.00000   0.01746   0.01746   2.92764
   R11        2.02201   0.01936   0.00000   0.03405   0.03405   2.05605
   R12        2.02201   0.01936   0.00000   0.03405   0.03405   2.05605
   R13        2.91018   0.00806   0.00000   0.01776   0.01776   2.92793
   R14        2.02201   0.01938   0.00000   0.03408   0.03408   2.05609
   R15        2.02201   0.01938   0.00000   0.03408   0.03408   2.05609
   R16        2.91018   0.00806   0.00000   0.01777   0.01777   2.92795
   R17        2.02201   0.01938   0.00000   0.03409   0.03409   2.05609
   R18        2.02201   0.01938   0.00000   0.03409   0.03409   2.05609
   R19        2.91018   0.00808   0.00000   0.01782   0.01782   2.92799
   R20        2.02201   0.01938   0.00000   0.03409   0.03409   2.05610
   R21        2.02201   0.01939   0.00000   0.03409   0.03409   2.05610
   R22        2.91018   0.00809   0.00000   0.01783   0.01783   2.92801
   R23        2.02201   0.01939   0.00000   0.03409   0.03409   2.05610
   R24        2.02201   0.01939   0.00000   0.03409   0.03409   2.05610
   R25        2.91018   0.00809   0.00000   0.01784   0.01784   2.92802
   R26        2.02201   0.01939   0.00000   0.03409   0.03409   2.05610
   R27        2.02201   0.01939   0.00000   0.03409   0.03409   2.05610
   R28        2.91018   0.00809   0.00000   0.01784   0.01784   2.92801
   R29        2.02201   0.01939   0.00000   0.03409   0.03409   2.05610
   R30        2.02201   0.01939   0.00000   0.03409   0.03409   2.05610
   R31        2.91018   0.00809   0.00000   0.01784   0.01784   2.92802
   R32        2.02201   0.01939   0.00000   0.03409   0.03409   2.05610
   R33        2.02201   0.01939   0.00000   0.03409   0.03409   2.05610
   R34        2.91018   0.00809   0.00000   0.01783   0.01783   2.92801
   R35        2.02201   0.01939   0.00000   0.03409   0.03409   2.05610
   R36        2.02201   0.01938   0.00000   0.03409   0.03409   2.05610
   R37        2.91018   0.00808   0.00000   0.01782   0.01782   2.92799
   R38        2.02201   0.01938   0.00000   0.03409   0.03409   2.05609
   R39        2.02201   0.01938   0.00000   0.03409   0.03409   2.05609
   R40        2.91018   0.00806   0.00000   0.01777   0.01777   2.92795
   R41        2.02201   0.01938   0.00000   0.03408   0.03408   2.05609
   R42        2.02201   0.01938   0.00000   0.03408   0.03408   2.05609
   R43        2.91018   0.00806   0.00000   0.01776   0.01776   2.92793
   R44        2.02201   0.01936   0.00000   0.03405   0.03405   2.05605
   R45        2.02201   0.01936   0.00000   0.03405   0.03405   2.05605
   R46        2.91018   0.00792   0.00000   0.01746   0.01746   2.92764
   R47        2.02201   0.01947   0.00000   0.03423   0.03423   2.05624
   R48        2.02201   0.01947   0.00000   0.03423   0.03423   2.05624
   R49        2.91018   0.00694   0.00000   0.01529   0.01529   2.92547
   R50        2.02201   0.01915   0.00000   0.03367   0.03367   2.05568
   R51        2.02201   0.01915   0.00000   0.03367   0.03367   2.05568
   R52        2.91018   0.00708   0.00000   0.01560   0.01560   2.92578
   R53        2.02201   0.01806   0.00000   0.03176   0.03176   2.05377
   R54        2.02201   0.01844   0.00000   0.03243   0.03243   2.05444
   R55        2.02201   0.01806   0.00000   0.03176   0.03176   2.05377
    A1        1.91063  -0.00343   0.00000  -0.01309  -0.01312   1.89751
    A2        1.91063  -0.00447   0.00000  -0.01486  -0.01501   1.89563
    A3        1.91063   0.00294   0.00000   0.00986   0.00977   1.92041
    A4        1.91063  -0.00447   0.00000  -0.01486  -0.01501   1.89563
    A5        1.91063   0.00294   0.00000   0.00986   0.00977   1.92041
    A6        1.91063   0.00649   0.00000   0.02309   0.02294   1.93358
    A7        1.91063  -0.00284   0.00000  -0.00458  -0.00462   1.90601
    A8        1.91063  -0.00284   0.00000  -0.00458  -0.00462   1.90601
    A9        1.91063   0.01252   0.00000   0.03796   0.03789   1.94852
   A10        1.91063   0.00023   0.00000  -0.01183  -0.01196   1.89867
   A11        1.91063  -0.00354   0.00000  -0.00849  -0.00862   1.90201
   A12        1.91063  -0.00354   0.00000  -0.00849  -0.00862   1.90201
   A13        1.91063  -0.00400   0.00000  -0.00887  -0.00898   1.90165
   A14        1.91063  -0.00400   0.00000  -0.00887  -0.00898   1.90165
   A15        1.91063   0.01495   0.00000   0.04469   0.04462   1.95526
   A16        1.91063   0.00081   0.00000  -0.01059  -0.01078   1.89985
   A17        1.91063  -0.00388   0.00000  -0.00818  -0.00827   1.90237
   A18        1.91063  -0.00388   0.00000  -0.00818  -0.00827   1.90237
   A19        1.91063  -0.00402   0.00000  -0.00871  -0.00881   1.90183
   A20        1.91063  -0.00402   0.00000  -0.00871  -0.00881   1.90183
   A21        1.91063   0.01523   0.00000   0.04547   0.04540   1.95604
   A22        1.91063   0.00086   0.00000  -0.01053  -0.01072   1.89991
   A23        1.91063  -0.00403   0.00000  -0.00877  -0.00887   1.90176
   A24        1.91063  -0.00403   0.00000  -0.00877  -0.00887   1.90176
   A25        1.91063  -0.00405   0.00000  -0.00879  -0.00889   1.90174
   A26        1.91063  -0.00405   0.00000  -0.00879  -0.00889   1.90174
   A27        1.91063   0.01536   0.00000   0.04586   0.04579   1.95642
   A28        1.91063   0.00088   0.00000  -0.01054  -0.01074   1.89989
   A29        1.91063  -0.00407   0.00000  -0.00887  -0.00898   1.90166
   A30        1.91063  -0.00407   0.00000  -0.00887  -0.00898   1.90166
   A31        1.91063  -0.00408   0.00000  -0.00887  -0.00897   1.90166
   A32        1.91063  -0.00408   0.00000  -0.00887  -0.00897   1.90166
   A33        1.91063   0.01541   0.00000   0.04601   0.04594   1.95657
   A34        1.91063   0.00089   0.00000  -0.01053  -0.01073   1.89991
   A35        1.91063  -0.00408   0.00000  -0.00887  -0.00898   1.90166
   A36        1.91063  -0.00408   0.00000  -0.00887  -0.00898   1.90166
   A37        1.91063  -0.00408   0.00000  -0.00888  -0.00898   1.90165
   A38        1.91063  -0.00408   0.00000  -0.00888  -0.00898   1.90165
   A39        1.91063   0.01544   0.00000   0.04608   0.04601   1.95664
   A40        1.91063   0.00090   0.00000  -0.01052  -0.01073   1.89991
   A41        1.91063  -0.00409   0.00000  -0.00890  -0.00900   1.90163
   A42        1.91063  -0.00409   0.00000  -0.00890  -0.00900   1.90163
   A43        1.91063  -0.00409   0.00000  -0.00889  -0.00900   1.90164
   A44        1.91063  -0.00409   0.00000  -0.00889  -0.00900   1.90164
   A45        1.91063   0.01545   0.00000   0.04611   0.04603   1.95667
   A46        1.91063   0.00090   0.00000  -0.01053  -0.01073   1.89991
   A47        1.91063  -0.00409   0.00000  -0.00890  -0.00900   1.90163
   A48        1.91063  -0.00409   0.00000  -0.00890  -0.00900   1.90163
   A49        1.91063  -0.00409   0.00000  -0.00890  -0.00900   1.90163
   A50        1.91063  -0.00409   0.00000  -0.00890  -0.00900   1.90163
   A51        1.91063   0.01545   0.00000   0.04612   0.04605   1.95668
   A52        1.91063   0.00090   0.00000  -0.01053  -0.01073   1.89991
   A53        1.91063  -0.00409   0.00000  -0.00890  -0.00900   1.90163
   A54        1.91063  -0.00409   0.00000  -0.00890  -0.00900   1.90163
   A55        1.91063  -0.00409   0.00000  -0.00890  -0.00900   1.90163
   A56        1.91063  -0.00409   0.00000  -0.00890  -0.00900   1.90163
   A57        1.91063   0.01545   0.00000   0.04612   0.04605   1.95668
   A58        1.91063   0.00090   0.00000  -0.01053  -0.01073   1.89991
   A59        1.91063  -0.00409   0.00000  -0.00890  -0.00900   1.90163
   A60        1.91063  -0.00409   0.00000  -0.00890  -0.00900   1.90163
   A61        1.91063  -0.00409   0.00000  -0.00890  -0.00900   1.90163
   A62        1.91063  -0.00409   0.00000  -0.00890  -0.00900   1.90163
   A63        1.91063   0.01545   0.00000   0.04611   0.04603   1.95667
   A64        1.91063   0.00090   0.00000  -0.01053  -0.01073   1.89991
   A65        1.91063  -0.00409   0.00000  -0.00889  -0.00900   1.90164
   A66        1.91063  -0.00409   0.00000  -0.00889  -0.00900   1.90164
   A67        1.91063  -0.00409   0.00000  -0.00890  -0.00900   1.90163
   A68        1.91063  -0.00409   0.00000  -0.00890  -0.00900   1.90163
   A69        1.91063   0.01544   0.00000   0.04608   0.04601   1.95664
   A70        1.91063   0.00090   0.00000  -0.01052  -0.01073   1.89991
   A71        1.91063  -0.00408   0.00000  -0.00888  -0.00898   1.90165
   A72        1.91063  -0.00408   0.00000  -0.00888  -0.00898   1.90165
   A73        1.91063  -0.00408   0.00000  -0.00887  -0.00898   1.90166
   A74        1.91063  -0.00408   0.00000  -0.00887  -0.00898   1.90166
   A75        1.91063   0.01541   0.00000   0.04601   0.04594   1.95657
   A76        1.91063   0.00089   0.00000  -0.01053  -0.01073   1.89991
   A77        1.91063  -0.00408   0.00000  -0.00887  -0.00897   1.90166
   A78        1.91063  -0.00408   0.00000  -0.00887  -0.00897   1.90166
   A79        1.91063  -0.00407   0.00000  -0.00887  -0.00898   1.90166
   A80        1.91063  -0.00407   0.00000  -0.00887  -0.00898   1.90166
   A81        1.91063   0.01536   0.00000   0.04586   0.04579   1.95642
   A82        1.91063   0.00088   0.00000  -0.01054  -0.01074   1.89989
   A83        1.91063  -0.00405   0.00000  -0.00879  -0.00889   1.90174
   A84        1.91063  -0.00405   0.00000  -0.00879  -0.00889   1.90174
   A85        1.91063  -0.00403   0.00000  -0.00877  -0.00887   1.90176
   A86        1.91063  -0.00403   0.00000  -0.00877  -0.00887   1.90176
   A87        1.91063   0.01523   0.00000   0.04547   0.04540   1.95604
   A88        1.91063   0.00086   0.00000  -0.01053  -0.01072   1.89991
   A89        1.91063  -0.00402   0.00000  -0.00871  -0.00881   1.90183
   A90        1.91063  -0.00402   0.00000  -0.00871  -0.00881   1.90183
   A91        1.91063  -0.00388   0.00000  -0.00818  -0.00827   1.90237
   A92        1.91063  -0.00388   0.00000  -0.00818  -0.00827   1.90237
   A93        1.91063   0.01495   0.00000   0.04469   0.04462   1.95526
   A94        1.91063   0.00081   0.00000  -0.01059  -0.01078   1.89985
   A95        1.91063  -0.00400   0.00000  -0.00887  -0.00898   1.90165
   A96        1.91063  -0.00400   0.00000  -0.00887  -0.00898   1.90165
   A97        1.91063  -0.00354   0.00000  -0.00849  -0.00862   1.90201
   A98        1.91063  -0.00354   0.00000  -0.00849  -0.00862   1.90201
   A99        1.91063   0.01252   0.00000   0.03796   0.03789   1.94852
   A100       1.91063   0.00023   0.00000  -0.01183  -0.01196   1.89867
   A101       1.91063  -0.00284   0.00000  -0.00458  -0.00462   1.90601
   A102       1.91063  -0.00284   0.00000  -0.00458  -0.00462   1.90601
   A103       1.91063   0.00294   0.00000   0.00986   0.00977   1.92041
   A104       1.91063   0.00649   0.00000   0.02309   0.02294   1.93358
   A105       1.91063   0.00294   0.00000   0.00986   0.00977   1.92041
   A106       1.91063  -0.00447   0.00000  -0.01486  -0.01501   1.89563
   A107       1.91063  -0.00343   0.00000  -0.01309  -0.01312   1.89751
   A108       1.91063  -0.00447   0.00000  -0.01486  -0.01501   1.89563
    D1        3.14159   0.00129   0.00000   0.00807   0.00806  -3.13353
    D2       -1.04720  -0.00190   0.00000  -0.01202  -0.01207  -1.05927
    D3        1.04720  -0.00030   0.00000  -0.00198  -0.00201   1.04519
    D4        1.04720   0.00190   0.00000   0.01202   0.01207   1.05927
    D5        3.14159  -0.00129   0.00000  -0.00807  -0.00806   3.13353
    D6       -1.04720   0.00030   0.00000   0.00198   0.00201  -1.04519
    D7       -1.04720   0.00160   0.00000   0.01005   0.01007  -1.03713
    D8        1.04720  -0.00160   0.00000  -0.01005  -0.01007   1.03713
    D9        3.14159   0.00000   0.00000   0.00000   0.00000   3.14159
   D10        1.04720  -0.00196   0.00000  -0.01192  -0.01190   1.03530
   D11       -1.04720   0.00196   0.00000   0.01192   0.01190  -1.03530
   D12        3.14159   0.00000   0.00000   0.00000   0.00000   3.14159
   D13       -1.04720  -0.00398   0.00000  -0.02436  -0.02430  -1.07150
   D14        3.14159  -0.00007   0.00000  -0.00052  -0.00051   3.14109
   D15        1.04720  -0.00202   0.00000  -0.01244  -0.01240   1.03479
   D16        3.14159   0.00007   0.00000   0.00052   0.00051  -3.14109
   D17        1.04720   0.00398   0.00000   0.02436   0.02430   1.07150
   D18       -1.04720   0.00202   0.00000   0.01244   0.01240  -1.03480
   D19        1.04720  -0.00193   0.00000  -0.01178  -0.01176   1.03544
   D20       -1.04720   0.00193   0.00000   0.01178   0.01176  -1.03544
   D21        3.14159   0.00000   0.00000   0.00000   0.00000   3.14159
   D22        3.14159  -0.00005   0.00000  -0.00028  -0.00028   3.14131
   D23        1.04720   0.00381   0.00000   0.02327   0.02324   1.07044
   D24       -1.04720   0.00188   0.00000   0.01149   0.01148  -1.03571
   D25       -1.04720  -0.00381   0.00000  -0.02327  -0.02324  -1.07044
   D26        3.14159   0.00005   0.00000   0.00028   0.00028  -3.14131
   D27        1.04720  -0.00188   0.00000  -0.01149  -0.01148   1.03571
   D28        1.04720  -0.00194   0.00000  -0.01184  -0.01182   1.03538
   D29       -1.04720   0.00194   0.00000   0.01184   0.01182  -1.03538
   D30        3.14159   0.00000   0.00000   0.00000   0.00000   3.14159
   D31        3.14159   0.00000   0.00000  -0.00002  -0.00002   3.14157
   D32        1.04720   0.00388   0.00000   0.02365   0.02361   1.07081
   D33       -1.04720   0.00194   0.00000   0.01181   0.01180  -1.03540
   D34       -1.04720  -0.00388   0.00000  -0.02365  -0.02361  -1.07081
   D35        3.14159   0.00000   0.00000   0.00002   0.00002  -3.14157
   D36        1.04720  -0.00194   0.00000  -0.01181  -0.01180   1.03540
   D37        1.04720  -0.00195   0.00000  -0.01188  -0.01186   1.03534
   D38       -1.04720   0.00195   0.00000   0.01188   0.01186  -1.03534
   D39       -3.14159   0.00000   0.00000   0.00000   0.00000  -3.14159
   D40       -3.14159   0.00000   0.00000   0.00001   0.00001  -3.14158
   D41        1.04720   0.00390   0.00000   0.02376   0.02373   1.07092
   D42       -1.04720   0.00195   0.00000   0.01189   0.01187  -1.03533
   D43       -1.04720  -0.00390   0.00000  -0.02376  -0.02373  -1.07092
   D44       -3.14159   0.00000   0.00000  -0.00001  -0.00001   3.14158
   D45        1.04720  -0.00195   0.00000  -0.01189  -0.01187   1.03533
   D46        1.04720  -0.00195   0.00000  -0.01188  -0.01187   1.03533
   D47       -1.04720   0.00195   0.00000   0.01188   0.01187  -1.03533
   D48        3.14159   0.00000   0.00000   0.00000   0.00000   3.14159
   D49        3.14159   0.00000   0.00000   0.00000   0.00000   3.14159
   D50        1.04720   0.00390   0.00000   0.02376   0.02373   1.07092
   D51       -1.04720   0.00195   0.00000   0.01188   0.01186  -1.03534
   D52       -1.04720  -0.00390   0.00000  -0.02376  -0.02373  -1.07093
   D53        3.14159   0.00000   0.00000   0.00000   0.00000  -3.14159
   D54        1.04720  -0.00195   0.00000  -0.01188  -0.01186   1.03533
   D55        1.04720  -0.00195   0.00000  -0.01189  -0.01187   1.03533
   D56       -1.04720   0.00195   0.00000   0.01189   0.01187  -1.03532
   D57       -3.14159   0.00000   0.00000   0.00000   0.00000  -3.14159
   D58       -3.14159   0.00000   0.00000   0.00000   0.00000  -3.14159
   D59        1.04720   0.00391   0.00000   0.02379   0.02375   1.07095
   D60       -1.04720   0.00195   0.00000   0.01189   0.01187  -1.03532
   D61       -1.04720  -0.00391   0.00000  -0.02379  -0.02375  -1.07094
   D62       -3.14159   0.00000   0.00000   0.00000   0.00000  -3.14159
   D63        1.04720  -0.00195   0.00000  -0.01189  -0.01187   1.03532
   D64        1.04719  -0.00195   0.00000  -0.01189  -0.01187   1.03532
   D65       -1.04720   0.00195   0.00000   0.01189   0.01187  -1.03533
   D66        3.14159   0.00000   0.00000   0.00000   0.00000   3.14159
   D67        3.14159   0.00000   0.00000   0.00000   0.00000   3.14159
   D68        1.04720   0.00391   0.00000   0.02379   0.02375   1.07094
   D69       -1.04720   0.00195   0.00000   0.01189   0.01187  -1.03533
   D70       -1.04720  -0.00391   0.00000  -0.02379  -0.02375  -1.07095
   D71        3.14159   0.00000   0.00000   0.00000   0.00000   3.14159
   D72        1.04719  -0.00195   0.00000  -0.01189  -0.01187   1.03532
   D73        1.04720  -0.00195   0.00000  -0.01190  -0.01188   1.03532
   D74       -1.04720   0.00195   0.00000   0.01190   0.01188  -1.03532
   D75       -3.14159   0.00000   0.00000   0.00000   0.00000  -3.14159
   D76       -3.14159   0.00000   0.00000   0.00000   0.00000  -3.14159
   D77        1.04720   0.00391   0.00000   0.02379   0.02376   1.07095
   D78       -1.04720   0.00195   0.00000   0.01190   0.01188  -1.03532
   D79       -1.04720  -0.00391   0.00000  -0.02379  -0.02376  -1.07095
   D80       -3.14159   0.00000   0.00000   0.00000   0.00000  -3.14159
   D81        1.04720  -0.00195   0.00000  -0.01190  -0.01188   1.03532
   D82        1.04720  -0.00195   0.00000  -0.01189  -0.01187   1.03532
   D83       -1.04720   0.00195   0.00000   0.01189   0.01187  -1.03533
   D84        3.14159   0.00000   0.00000   0.00000   0.00000   3.14159
   D85        3.14159   0.00000   0.00000   0.00000   0.00000   3.14159
   D86        1.04720   0.00391   0.00000   0.02379   0.02375   1.07094
   D87       -1.04720   0.00195   0.00000   0.01189   0.01187  -1.03532
   D88       -1.04720  -0.00391   0.00000  -0.02379  -0.02375  -1.07095
   D89        3.14159   0.00000   0.00000   0.00000   0.00000   3.14159
   D90        1.04720  -0.00195   0.00000  -0.01189  -0.01187   1.03532
   D91        1.04720  -0.00195   0.00000  -0.01189  -0.01187   1.03532
   D92       -1.04720   0.00195   0.00000   0.01189   0.01187  -1.03532
   D93       -3.14159   0.00000   0.00000   0.00000   0.00000  -3.14159
   D94       -3.14159   0.00000   0.00000   0.00000   0.00000  -3.14159
   D95        1.04720   0.00391   0.00000   0.02379   0.02375   1.07095
   D96       -1.04720   0.00195   0.00000   0.01189   0.01187  -1.03532
   D97       -1.04720  -0.00391   0.00000  -0.02379  -0.02375  -1.07094
   D98       -3.14159   0.00000   0.00000   0.00000   0.00000  -3.14159
   D99        1.04720  -0.00195   0.00000  -0.01189  -0.01187   1.03533
   D100       1.04720  -0.00195   0.00000  -0.01188  -0.01186   1.03533
   D101      -1.04720   0.00195   0.00000   0.01188   0.01186  -1.03534
   D102       3.14159   0.00000   0.00000   0.00000   0.00000   3.14159
   D103       3.14159   0.00000   0.00000   0.00000   0.00000  -3.14159
   D104       1.04720   0.00390   0.00000   0.02376   0.02373   1.07092
   D105      -1.04720   0.00195   0.00000   0.01188   0.01187  -1.03533
   D106      -1.04720  -0.00390   0.00000  -0.02376  -0.02373  -1.07093
   D107       3.14159   0.00000   0.00000   0.00000   0.00000   3.14159
   D108       1.04720  -0.00195   0.00000  -0.01188  -0.01187   1.03533
   D109       1.04720  -0.00195   0.00000  -0.01189  -0.01187   1.03533
   D110      -1.04720   0.00195   0.00000   0.01189   0.01187  -1.03533
   D111      -3.14159   0.00000   0.00000   0.00000   0.00000  -3.14159
   D112      -3.14159   0.00000   0.00000  -0.00001  -0.00001   3.14158
   D113       1.04720   0.00390   0.00000   0.02376   0.02373   1.07093
   D114      -1.04720   0.00195   0.00000   0.01188   0.01186  -1.03534
   D115      -1.04720  -0.00390   0.00000  -0.02376  -0.02373  -1.07092
   D116      -3.14159   0.00000   0.00000   0.00001   0.00001  -3.14158
   D117       1.04720  -0.00195   0.00000  -0.01188  -0.01186   1.03534
   D118       1.04720  -0.00194   0.00000  -0.01181  -0.01180   1.03540
   D119      -1.04720   0.00194   0.00000   0.01181   0.01180  -1.03540
   D120       3.14159   0.00000   0.00000   0.00000   0.00000   3.14159
   D121       3.14159   0.00000   0.00000   0.00002   0.00002  -3.14157
   D122       1.04720   0.00388   0.00000   0.02365   0.02361   1.07081
   D123      -1.04720   0.00194   0.00000   0.01184   0.01182  -1.03538
   D124      -1.04720  -0.00388   0.00000  -0.02365  -0.02361  -1.07081
   D125       3.14159   0.00000   0.00000  -0.00002  -0.00002   3.14157
   D126       1.04720  -0.00194   0.00000  -0.01184  -0.01182   1.03538
   D127       1.04720  -0.00188   0.00000  -0.01149  -0.01148   1.03571
   D128      -1.04720   0.00188   0.00000   0.01149   0.01148  -1.03571
   D129      -3.14159   0.00000   0.00000   0.00000   0.00000  -3.14159
   D130       3.14159   0.00005   0.00000   0.00028   0.00028  -3.14131
   D131       1.04720   0.00381   0.00000   0.02327   0.02324   1.07044
   D132      -1.04720   0.00193   0.00000   0.01178   0.01176  -1.03544
   D133      -1.04720  -0.00381   0.00000  -0.02327  -0.02324  -1.07044
   D134       3.14159  -0.00005   0.00000  -0.00028  -0.00028   3.14131
   D135       1.04720  -0.00193   0.00000  -0.01178  -0.01176   1.03544
   D136       1.04720  -0.00202   0.00000  -0.01244  -0.01240   1.03479
   D137      -1.04720   0.00202   0.00000   0.01244   0.01240  -1.03480
   D138       3.14159   0.00000   0.00000   0.00000   0.00000   3.14159
   D139       3.14159  -0.00007   0.00000  -0.00052  -0.00051   3.14109
   D140       1.04720   0.00398   0.00000   0.02436   0.02430   1.07150
   D141      -1.04720   0.00196   0.00000   0.01192   0.01190  -1.03530
   D142      -1.04720  -0.00398   0.00000  -0.02436  -0.02430  -1.07150
   D143       3.14159   0.00007   0.00000   0.00052   0.00051  -3.14109
   D144       1.04720  -0.00196   0.00000  -0.01192  -0.01190   1.03530
   D145       1.04720  -0.00030   0.00000  -0.00198  -0.00201   1.04519
   D146       3.14159   0.00000   0.00000   0.00000   0.00000   3.14159
   D147      -1.04720   0.00030   0.00000   0.00198   0.00201  -1.04519
   D148       3.14159   0.00129   0.00000   0.00807   0.00806  -3.13353
   D149      -1.04720   0.00160   0.00000   0.01005   0.01007  -1.03713
   D150       1.04720   0.00190   0.00000   0.01202   0.01207   1.05927
   D151      -1.04720  -0.00190   0.00000  -0.01202  -0.01207  -1.05927
   D152       1.04720  -0.00160   0.00000  -0.01005  -0.01007   1.03713
   D153       3.14159  -0.00129   0.00000  -0.00807  -0.00806   3.13353
         Item               Value     Threshold  Converged?
 Maximum Force            0.019466     0.000450     NO 
 RMS     Force            0.008069     0.000300     NO 
 Maximum Displacement     0.386040     0.001800     NO 
 RMS     Displacement     0.119419     0.001200     NO 
 Predicted change in Energy=-3.126202D-02
[...]
 ! D115  D(40,38,41,42)        -64.2577         -DE/DX =    0.0                 !
 ! D116  D(40,38,41,43)        180.0008         -DE/DX =    0.0                 !
 ! D117  D(40,38,41,44)         57.8715         -DE/DX =    0.0                 !
 ! D118  D(38,41,44,45)         57.8683         -DE/DX =    0.0                 !
 ! D119  D(38,41,44,46)        -57.8683         -DE/DX =    0.0                 !
 ! D120  D(38,41,44,47)        180.0            -DE/DX =    0.0                 !
 ! D121  D(42,41,44,45)        179.998          -DE/DX =    0.0                 !
 ! D122  D(42,41,44,46)         64.2613         -DE/DX =    0.0                 !
 ! D123  D(42,41,44,47)        -57.8703         -DE/DX =    0.0                 !
 ! D124  D(43,41,44,45)        -64.2613         -DE/DX =    0.0                 !
 ! D125  D(43,41,44,46)       -179.998          -DE/DX =    0.0                 !
 ! D126  D(43,41,44,47)         57.8703         -DE/DX =    0.0                 !
 ! D127  D(41,44,47,48)         57.891          -DE/DX =    0.0                 !
 ! D128  D(41,44,47,49)        -57.891          -DE/DX =    0.0                 !
 ! D129  D(41,44,47,50)        180.0            -DE/DX =    0.0                 !
 ! D130  D(45,44,47,48)       -179.9774         -DE/DX =    0.0                 !
 ! D131  D(45,44,47,49)         64.2405         -DE/DX =    0.0                 !
 ! D132  D(45,44,47,50)        -57.8685         -DE/DX =    0.0                 !
 ! D133  D(46,44,47,48)        -64.2405         -DE/DX =    0.0                 !
 ! D134  D(46,44,47,49)        179.9774         -DE/DX =    0.0                 !
 ! D135  D(46,44,47,50)         57.8685         -DE/DX =    0.0                 !
 ! D136  D(44,47,50,51)         57.8111         -DE/DX =    0.0                 !
 ! D137  D(44,47,50,52)        -57.8111         -DE/DX =    0.0                 !
 ! D138  D(44,47,50,53)        180.0            -DE/DX =    0.0                 !
 ! D139  D(48,47,50,51)        179.9828         -DE/DX =    0.0                 !
 ! D140  D(48,47,50,52)         64.3607         -DE/DX =    0.0                 !
 ! D141  D(48,47,50,53)        -57.8282         -DE/DX =    0.0                 !
 ! D142  D(49,47,50,51)        -64.3607         -DE/DX =    0.0                 !
 ! D143  D(49,47,50,52)       -179.9828         -DE/DX =    0.0                 !
 ! D144  D(49,47,50,53)         57.8282         -DE/DX =    0.0                 !
 ! D145  D(47,50,53,54)         59.8388         -DE/DX =    0.0                 !
 ! D146  D(47,50,53,55)        180.0            -DE/DX =    0.0                 !
 ! D147  D(47,50,53,56)        -59.8388         -DE/DX =    0.0                 !
 ! D148  D(51,50,53,54)       -178.1807         -DE/DX =    0.0                 !
 ! D149  D(51,50,53,55)        -58.0195         -DE/DX =    0.0                 !
 ! D150  D(51,50,53,56)         62.1418         -DE/DX =    0.0                 !
 ! D151  D(52,50,53,54)        -62.1418         -DE/DX =    0.0                 !
 ! D152  D(52,50,53,55)         58.0195         -DE/DX =    0.0                 !
 ! D153  D(52,50,53,56)        178.1807         -DE/DX =    0.0                 !
 --------------------------------------------------------------------------------
 GradGradGradGradGradGradGradGradGradGradGradGradGradGradGradGradGradGrad

 Stoichiometry    C18H38
 Framework group  C1[X(C18H38)]
 Deg. of freedom   162
 Full point group                 C1      NOp   1
 Largest Abelian subgroup         C1      NOp   1
 Largest concise Abelian subgroup C1      NOp   1
                         Standard orientation:                         
 ---------------------------------------------------------------------
 Center     Atomic      Atomic             Coordinates (Angstroms)
 Number     Number       Type             X           Y           Z
 ---------------------------------------------------------------------
      1          6           0      -10.937583   -0.345862   -0.000001
      2          1           0      -10.985772   -0.992262    0.885584
      3          1           0      -10.985772   -0.992262   -0.885585
      4          1           0      -11.831685    0.288567   -0.000001
      5          6           0       -9.651056    0.495443    0.000000
      6          1           0       -9.644136    1.156219   -0.879631
      7          1           0       -9.644136    1.156218    0.879630
      8          6           0       -8.369727   -0.358473    0.000000
      9          1           0       -8.375920   -1.019859   -0.880382
     10          1           0       -8.375920   -1.019859    0.880382
     11          6           0       -7.076069    0.475885    0.000000
     12          1           0       -7.070997    1.137133    0.880396
     13          1           0       -7.070997    1.137134   -0.880396
     14          6           0       -5.795251   -0.378279    0.000000
     15          1           0       -5.800257   -1.039504   -0.880374
     16          1           0       -5.800258   -1.039504    0.880375
     17          6           0       -4.501698    0.456408    0.000000
     18          1           0       -4.496674    1.117633    0.880387
     19          1           0       -4.496674    1.117633   -0.880387
     20          6           0       -3.220980   -0.397819    0.000000
     21          1           0       -3.225995   -1.059044   -0.880388
     22          1           0       -3.225995   -1.059044    0.880388
     23          6           0       -1.927457    0.436880    0.000000
     24          1           0       -1.922439    1.098105    0.880390
     25          1           0       -1.922439    1.098105   -0.880389
     26          6           0       -0.646756   -0.417355    0.000000
     27          1           0       -0.651771   -1.078579   -0.880389
     28          1           0       -0.651771   -1.078579    0.880390
     29          6           0        0.646756    0.417355    0.000000
     30          1           0        0.651771    1.078579    0.880390
     31          1           0        0.651771    1.078579   -0.880389
     32          6           0        1.927457   -0.436880    0.000000
     33          1           0        1.922439   -1.098105   -0.880389
     34          1           0        1.922439   -1.098105    0.880390
     35          6           0        3.220980    0.397819    0.000000
     36          1           0        3.225995    1.059044    0.880388
     37          1           0        3.225995    1.059044   -0.880388
     38          6           0        4.501698   -0.456408    0.000000
     39          1           0        4.496674   -1.117633   -0.880387
     40          1           0        4.496674   -1.117633    0.880387
     41          6           0        5.795251    0.378279    0.000000
     42          1           0        5.800258    1.039504    0.880375
     43          1           0        5.800257    1.039504   -0.880374
     44          6           0        7.076069   -0.475885    0.000000
     45          1           0        7.070997   -1.137134   -0.880396
     46          1           0        7.070997   -1.137133    0.880396
     47          6           0        8.369727    0.358473    0.000000
     48          1           0        8.375920    1.019859    0.880382
     49          1           0        8.375920    1.019859   -0.880382
     50          6           0        9.651056   -0.495443    0.000000
     51          1           0        9.644136   -1.156219   -0.879631
     52          1           0        9.644136   -1.156219    0.879630
     53          6           0       10.937583    0.345862   -0.000001
     54          1           0       10.985772    0.992262    0.885584
     55          1           0       11.831685   -0.288567   -0.000001
     56          1           0       10.985772    0.992262   -0.885585
 ---------------------------------------------------------------------
 Rotational constants (GHZ):           4.6441847           0.0437103           0.0435127

 **********************************************************************

            Population analysis using the SCF Density.

 **********************************************************************

 Orbital symmetries:
       Occupied  (A) (A) (A) (A) (A) (A) (A) (A) (A) (A) (A) (A)
                 (A) (A) (A) (A) (A) (A) (A) (A) (A) (A) (A) (A)
                 (A) (A) (A) (A) (A) (A) (A) (A) (A) (A) (A) (A)
                 (A) (A) (A) (A) (A) (A) (A) (A) (A) (A) (A) (A)
                 (A) (A) (A) (A) (A) (A) (A) (A) (A) (A) (A) (A)
                 (A) (A) (A) (A) (A) (A) (A) (A) (A) (A) (A) (A)
                 (A)
       Virtual   (A) (A) (A) (A) (A) (A) (A) (A) (A) (A) (A) (A)
                 (A) (A) (A) (A) (A) (A) (A) (A) (A) (A) (A) (A)
                 (A) (A) (A) (A) (A) (A) (A) (A) (A) (A) (A) (A)
                 (A) (A) (A) (A) (A) (A) (A) (A) (A) (A) (A) (A)
                 (A) (A) (A) (A) (A) (A) (A) (A) (A) (A) (A) (A)
                 (A) (A) (A) (A) (A) (A) (A) (A) (A) (A) (A) (A)
                 (A) (A) (A) (A) (A) (A) (A) (A) (A) (A) (A) (A)
                 (A) (A) (A) (A) (A) (A) (A) (A) (A) (A) (A) (A)
                 (A) (A) (A) (A) (A) (A) (A) (A) (A) (A) (A) (A)
                 (A) (A) (A) (A) (A) (A) (A) (A) (A) (A) (A) (A)
                 (A) (A) (A) (A) (A) (A) (A) (A) (A) (A) (A) (A)
                 (A) (A) (A) (A) (A) (A) (A) (A) (A) (A) (A) (A)
                 (A) (A) (A) (A) (A) (A) (A) (A) (A) (A) (A) (A)
                 (A) (A) (A) (A) (A) (A) (A) (A) (A)
 The electronic state is 1-A.
 Alpha  occ. eigenvalues --  -10.17186 -10.17186 -10.16957 -10.16957 -10.16952
 Alpha  occ. eigenvalues --  -10.16952 -10.16950 -10.16948 -10.16945 -10.16942
 Alpha  occ. eigenvalues --  -10.16938 -10.16935 -10.16932 -10.16932 -10.16931
 Alpha  occ. eigenvalues --  -10.16928 -10.16450 -10.16450  -0.81161  -0.80629
 Alpha  occ. eigenvalues --   -0.79742  -0.78512  -0.76949  -0.75070  -0.72896
 Alpha  occ. eigenvalues --   -0.70462  -0.67820  -0.65049  -0.62287  -0.59781
 Alpha  occ. eigenvalues --   -0.57929  -0.57691  -0.57386  -0.57126  -0.56786
 Alpha  occ. eigenvalues --   -0.56711  -0.48464  -0.47968  -0.47150  -0.46038
 Alpha  occ. eigenvalues --   -0.44664  -0.43073  -0.43001  -0.42867  -0.42154
 Alpha  occ. eigenvalues --   -0.41453  -0.41325  -0.40762  -0.39496  -0.39200
 Alpha  occ. eigenvalues --   -0.38872  -0.37678  -0.37415  -0.35971  -0.35888
 Alpha  occ. eigenvalues --   -0.35776  -0.34473  -0.34349  -0.33343  -0.33264
 Alpha  occ. eigenvalues --   -0.32695  -0.32497  -0.32389  -0.31981  -0.31844
 Alpha  occ. eigenvalues --   -0.31724  -0.31588  -0.31583  -0.31574  -0.31500
 Alpha  occ. eigenvalues --   -0.31481  -0.30041  -0.28200
 Alpha virt. eigenvalues --    0.08810   0.09070   0.09467   0.09965   0.10594
 Alpha virt. eigenvalues --    0.10890   0.11478   0.11580   0.11921   0.12569
 Alpha virt. eigenvalues --    0.12715   0.12836   0.13704   0.14248   0.14634
 Alpha virt. eigenvalues --    0.15212   0.16065   0.16751   0.16770   0.17618
 Alpha virt. eigenvalues --    0.17819   0.17926   0.19268   0.19368   0.19649
 Alpha virt. eigenvalues --    0.19773   0.19912   0.19978   0.20022   0.20240
 Alpha virt. eigenvalues --    0.20287   0.20395   0.20462   0.21381   0.21401
 Alpha virt. eigenvalues --    0.21412   0.21838   0.22235   0.22293   0.22315
 Alpha virt. eigenvalues --    0.22325   0.22631   0.23652   0.23754   0.24856
 Alpha virt. eigenvalues --    0.25589   0.25676   0.27126   0.27452   0.27665
 Alpha virt. eigenvalues --    0.29037   0.31028   0.31295   0.35929   0.36112
 Alpha virt. eigenvalues --    0.48894   0.50903   0.52680   0.52771   0.53568
 Alpha virt. eigenvalues --    0.55505   0.55952   0.56627   0.57573   0.57576
 Alpha virt. eigenvalues --    0.59108   0.59128   0.59456   0.59661   0.59861
 Alpha virt. eigenvalues --    0.59885   0.60088   0.60309   0.61517   0.63136
 Alpha virt. eigenvalues --    0.64122   0.64248   0.64391   0.66280   0.67127
 Alpha virt. eigenvalues --    0.67525   0.67994   0.68572   0.71191   0.71297
 Alpha virt. eigenvalues --    0.71465   0.71537   0.73052   0.73780   0.74109
 Alpha virt. eigenvalues --    0.75553   0.76325   0.77509   0.79158   0.79438
 Alpha virt. eigenvalues --    0.81274   0.81589   0.82443   0.82664   0.83256
 Alpha virt. eigenvalues --    0.83339   0.83363   0.85550   0.86957   0.87659
 Alpha virt. eigenvalues --    0.87668   0.88843   0.89004   0.90500   0.91274
 Alpha virt. eigenvalues --    0.92573   0.92858   0.93370   0.94141   0.94895
 Alpha virt. eigenvalues --    0.94900   0.95226   0.96735   0.97187   0.97368
 Alpha virt. eigenvalues --    0.98847   0.99276   0.99765   1.00004   1.00104
 Alpha virt. eigenvalues --    1.00320   1.00646   1.00662   1.01253   1.01319
 Alpha virt. eigenvalues --    1.01359   1.01683   1.01833   1.02314   1.02441
 Alpha virt. eigenvalues --    1.02677   1.03094   1.04442   1.05570   1.08326
 Alpha virt. eigenvalues --    1.09343   1.14500   1.15476   1.16576   1.19149
 Alpha virt. eigenvalues --    1.23386   1.24173   1.29302   1.34057   1.36104
 Alpha virt. eigenvalues --    1.37978   1.41350   1.44272   1.46687   1.47967
 Alpha virt. eigenvalues --    1.48503   1.49584   1.50742   1.54261   1.56771
 Alpha virt. eigenvalues --    1.62243   1.74864   1.88939   1.99264   2.03524
          Condensed to atoms (all electrons):
 Mulliken charges:
               1
     1  C   -0.405205
     2  H    0.130575
     3  H    0.130575
     4  H    0.129187
     5  C   -0.236557
     6  H    0.122340
     7  H    0.122340
     8  C   -0.230634
     9  H    0.118637
    10  H    0.118637
    11  C   -0.238133
    12  H    0.119043
    13  H    0.119043
    14  C   -0.238317
    15  H    0.119167
    16  H    0.119167
    17  C   -0.238157
    18  H    0.119104
    19  H    0.119104
    20  C   -0.238176
    21  H    0.119108
    22  H    0.119108
    23  C   -0.238175
    24  H    0.119097
    25  H    0.119097
    26  C   -0.238168
    27  H    0.119097
    28  H    0.119097
    29  C   -0.238168
    30  H    0.119097
    31  H    0.119097
    32  C   -0.238175
    33  H    0.119097
    34  H    0.119097
    35  C   -0.238176
    36  H    0.119108
    37  H    0.119108
    38  C   -0.238157
    39  H    0.119104
    40  H    0.119104
    41  C   -0.238317
    42  H    0.119167
    43  H    0.119167
    44  C   -0.238133
    45  H    0.119043
    46  H    0.119043
    47  C   -0.230634
    48  H    0.118637
    49  H    0.118637
    50  C   -0.236557
    51  H    0.122340
    52  H    0.122340
    53  C   -0.405205
    54  H    0.130575
    55  H    0.129187
    56  H    0.130575
 Sum of Mulliken charges =   0.00000
 Mulliken charges with hydrogens summed into heavy atoms:
               1
     1  C   -0.014868
     5  C    0.008123
     8  C    0.006639
    11  C   -0.000047
    14  C    0.000017
    17  C    0.000051
    20  C    0.000039
    23  C    0.000020
    26  C    0.000025
    29  C    0.000025
    32  C    0.000020
    35  C    0.000039
    38  C    0.000051
    41  C    0.000017
    44  C   -0.000047
    47  C    0.006639
    50  C    0.008123
    53  C   -0.014868
 Electronic spatial extent (au):  <R**2>=          24531.2609
 Charge=              0.0000 electrons
 Dipole moment (field-independent basis, Debye):
    X=              0.0000    Y=              0.0000    Z=              0.0000  Tot=              0.0000
 Quadrupole moment (field-independent basis, Debye-Ang):
   XX=           -123.7573   YY=           -122.8339   ZZ=           -119.9313
   XY=             -0.6192   XZ=              0.0000   YZ=              0.0000
 Traceless Quadrupole moment (field-independent basis, Debye-Ang):
   XX=             -1.5831   YY=             -0.6597   ZZ=              2.2429
   XY=             -0.6192   XZ=              0.0000   YZ=              0.0000
 Octapole moment (field-independent basis, Debye-Ang**2):
  XXX=              0.0000  YYY=              0.0000  ZZZ=              0.0000  XYY=              0.0000
  XXY=              0.0000  XXZ=              0.0000  XZZ=              0.0000  YZZ=              0.0000
  YYZ=              0.0000  XYZ=              0.0000
 Hexadecapole moment (field-independent basis, Debye-Ang**3):
 XXXX=         -34122.5710 YYYY=           -435.8659 ZZZZ=           -251.8119 XXXY=           -131.7316
 XXXZ=              0.0000 YYYX=             -1.1303 YYYZ=              0.0000 ZZZX=              0.0000
 ZZZY=              0.0000 XXYY=          -5715.0592 XXZZ=          -5579.3731 YYZZ=           -105.6140
 XXYZ=              0.0000 YYXZ=              0.0000 ZZXY=              5.2355
 N-N= 1.172495514438D+03 E-N=-3.983761615437D+03  KE= 7.044227614527D+02
 1|1|UNPC-6424705A076343F|FOpt|RB3LYP|6-31G|C18H38|TKMELDRUM|14-Mar-202
 3|0||# opt b3lyp/6-31g geom=connectivity||Title Card Required||0,1|C,-
 9.8613471713,-4.2808032684,-0.1158723008|H,-9.5246617605,-5.3247629034
 ,-0.1505951259|H,-9.5213858719,-3.7917313544,-1.0376366073|H,-10.95764
 37964,-4.2825772031,-0.1229867892|C,-9.3081846193,-3.5634033574,1.1260
 186608|H,-9.6867782248,-2.5307542608,1.1529277554|H,-9.69003209,-4.053
 4788073,2.0340054102|C,-7.76937097,-3.5383353056,1.1750254959|H,-7.386
 5754611,-3.0476465077,0.2666018836|H,-7.3898321057,-4.5716718473,1.148
 4322465|C,-7.2063616455,-2.8216900527,2.4156485132|H,-7.5899872168,-3.
 312773551,3.3234157337|H,-7.5867305155,-1.7887232291,2.4415709093|C,-5
 .6678188911,-2.7968717918,2.4642226581|H,-5.2841536335,-2.3057783736,1
 .5565162351|H,-5.2874102599,-3.8297909818,2.4383393227|C,-5.1050863677
 ,-2.080123159,3.7050232056|H,-5.4887380578,-2.5712220252,4.6127448694|
 H,-5.4854814073,-1.0471880939,3.7309094474|C,-3.5665876296,-2.05535970
 46,3.7535024376|H,-3.1829298123,-1.5642569393,2.8457850608|H,-3.186186
 4701,-3.088293022,3.7276218284|C,-3.0038879679,-1.3386144975,4.9942967
 845|H,-3.3875436907,-1.8297173921,5.9020163513|H,-3.3842870821,-0.3056
 792469,5.0201784044|C,-1.4653978493,-1.3138589779,5.0427621696|H,-1.08
 17401536,-0.8227548747,4.1350437976|H,-1.0849967621,-2.3467938054,5.01
 68822976|C,-0.9027131889,-0.5971133645,6.2835570031|H,-1.2863708478,-1
 .088217495,7.1912753774|H,-1.2831143134,0.4358214473,6.3094368975|C,0.
 63577693,-0.5723577827,6.3320223516|H,1.0194326133,-0.0812549448,5.424
 3027388|H,1.0161760844,-1.6052930216,6.3061408045|C,1.198476592,0.1443
 8755,7.5728166247|H,0.8148188809,-0.3467152069,8.4805340529|H,0.818075
 3246,1.1773208271,7.5986972002|C,2.736975331,0.1691511758,7.6212957574
 |H,3.1206269137,0.66024995,6.7135739999|H,3.1173704795,-0.8637838537,7
 .5954096433|C,3.2997078547,0.8859000596,8.8620961591|H,2.9160427365,0.
 3948067115,9.7698026796|H,2.9192990826,1.9188191997,8.8879793838|C,4.8
 382506105,0.9107185452,8.9106701742|H,5.2218760458,1.4018019027,8.0029
 028212|H,5.2186196181,-0.1222482333,8.8847479678|C,5.4012599354,1.6273
 641421,10.1512929918|H,5.0184645712,1.1366754809,11.0597167398|H,5.021
 7209251,2.6607006341,10.1778860536|C,6.9400735857,1.6524324244,10.2002
 996932|H,7.3219209121,2.1425076945,9.2923127858|H,7.3186673366,0.61978
 33746,10.1733908336|C,7.4932361387,2.3698327397,11.4421904202|H,7.1532
 749839,1.8807610175,12.3639548821|H,8.5895327639,2.3716068336,11.44930
 48165|H,7.1565505835,3.4137923358,11.4769130009||Version=EM64W-G16RevB
 .01|State=1-A|HF=-708.6778325|RMSD=4.000e-009|RMSF=2.468e-005|Dipole=0
 .,0.,0.|Quadrupole=-0.5065076,0.958801,-0.4522935,-0.2328432,-0.410440
 1,-1.2256798|PG=C01 [X(C18H38)]||@


 IF OTHER PEOPLE ARE GOING TO TALK, CONVERSATION IS SIMPLY IMPOSSIBLE.

                                               -- WHISTLER'S PRINCIPLE
 Job cpu time:       0 days  0 hours 33 minutes 43.0 seconds.
 Elapsed time:       0 days  0 hours 33 minutes 38.5 seconds.
 File lengths (MBytes):  RWF=     48 Int=      0 D2E=      0 Chk=      8 Scr=      1
 Normal termination of Gaussian 16 at Tue Mar 14 11:57:25 2023.
