 Entering Link 1 = C:\Gaussian\l1.exe PID=      8204.
  
 Copyright (c) 1988-2017, Gaussian, Inc.  All Rights Reserved.
  
 This is part of the Gaussian(R) 16 program.  It is based on
 the Gaussian(R) 09 system (copyright 2009, Gaussian, Inc.),
 the Gaussian(R) 03 system (copyright 2003, Gaussian, Inc.),
 the Gaussian(R) 98 system (copyright 1998, Gaussian, Inc.),
 the Gaussian(R) 94 system (copyright 1995, Gaussian, Inc.),
 the Gaussian 92(TM) system (copyright 1992, Gaussian, Inc.),
 the Gaussian 90(TM) system (copyright 1990, Gaussian, Inc.),
 the Gaussian 88(TM) system (copyright 1988, Gaussian, Inc.),
 the Gaussian 86(TM) system (copyright 1986, Carnegie Mellon
 University), and the Gaussian 82(TM) system (copyright 1983,
 Carnegie Mellon University). Gaussian is a federally registered
 trademark of Gaussian, Inc.
  
 This software contains proprietary and confidential information,
 including trade secrets, belonging to Gaussian, Inc.
  
 This software is provided under written license and may be
 used, copied, transmitted, or stored only in accord with that
 written license.
  
 The following legend is applicable only to US Government
 contracts under FAR:
  
                    RESTRICTED RIGHTS LEGEND
  
 Use, reproduction and disclosure by the US Government is
 subject to restrictions as set forth in subparagraphs (a)
 and (c) of the Commercial Computer Software - Restricted
 Rights clause in FAR 52.227-19.
  
 Gaussian, Inc.
 340 Quinnipiac St., Bldg. 40, Wallingford CT 06492
  
  
 ---------------------------------------------------------------
 Warning -- This program may not be used in any manner that
 competes with the business of Gaussian, Inc. or will provide
 assistance to any competitor of Gaussian, Inc.  The licensee
 of this program is prohibited from giving any competitor of
 Gaussian, Inc. access to this program.  By using this program,
 the user acknowledges that Gaussian, Inc. is engaged in the
 business of creating and licensing software in the field of
 computational chemistry and represents and warrants to the
 licensee that it is not a competitor of Gaussian, Inc. and that
 it will not use this program in any manner prohibited above.
 ---------------------------------------------------------------
  

 Cite this work as:
 Gaussian 16, Revision B.01,
 M. J. Frisch, G. W. Trucks, H. B. Schlegel, G. E. Scuseria, 
 M. A. Robb, J. R. Cheeseman, G. Scalmani, V. Barone, 
 G. A. Petersson, H. Nakatsuji, X. Li, M. Caricato, A. V. Marenich, 
 J. Bloino, B. G. Janesko, R. Gomperts, B. Mennucci, H. P. Hratchian, 
 J. V. Ortiz, A. F. Izmaylov, J. L. Sonnenberg, D. Williams-Young, 
 F. Ding, F. Lipparini, F. Egidi, J. Goings, B. Peng, A. Petrone, 
 T. Henderson, D. Ranasinghe, V. G. Zakrzewski, J. Gao, N. Rega, 
 G. Zheng, W. Liang, M. Hada, M. Ehara, K. Toyota, R. Fukuda, 
 J. Hasegawa, M. Ishida, T. Nakajima, Y. Honda, O. Kitao, H. Nakai, 
 T. Vreven, K. Throssell, J. A. Montgomery, Jr., J. E. Peralta, 
 F. Ogliaro, M. J. Bearpark, J. J. Heyd, E. N. Brothers, K. N. Kudin, 
 V. N. Staroverov, T. A. Keith, R. Kobayashi, J. Normand, 
 K. Raghavachari, A. P. Rendell, J. C. Burant, S. S. Iyengar, 
 J. Tomasi, M. Cossi, J. M. Millam, M. Klene, C. Adamo, R. Cammi, 
 J. W. Ochterski, R. L. Martin, K. Morokuma, O. Farkas, 
 J. B. Foresman, and D. J. Fox, Gaussian, Inc., Wallingford CT, 2016.
 
 ******************************************
 Gaussian 16:  EM64W-G16RevB.01 16-Dec-2017
                14-Mar-2023 
 ******************************************
 %chk=C:\Users\tkmeldrum\Documents\MDworking\C6H14.chk
 -----------------------------------
 # opt b3lyp/6-31g geom=connectivity
 -----------------------------------
 1/18=20,19=15,26=3,38=1,57=2/1,3;
 2/9=110,12=2,17=6,18=5,40=1/2;
 3/5=1,6=6,11=2,25=1,30=1,71=1,74=-5/1,2,3;
 4//1;
 5/5=2,38=5/2;
 6/7=2,8=2,9=2,10=2,28=1/1;
 7//1,2,3,16;
 1/18=20,19=15,26=3/3(2);
 2/9=110/2;
 99//99;
 2/9=110/2;
 3/5=1,6=6,11=2,25=1,30=1,71=1,74=-5/1,2,3;
 4/5=5,16=3,69=1/1;
 5/5=2,38=5/2;
 7//1,2,3,16;
 1/18=20,19=15,26=3/3(-5);
 2/9=110/2;
 6/7=2,8=2,9=2,10=2,19=2,28=1/1;
 99/9=1/99;
 -------------------
 Title Card Required
 -------------------
 Symbolic Z-matrix:
 Charge =  0 Multiplicity = 1
 C                    -6.94969  -0.1887    0.00001 
 H                    -6.59318  -1.19756   0.00012 
 H                    -6.59287   0.31558  -0.87365 
 H                    -8.01969  -0.18853  -0.00008 
 C                    -6.43634   0.53728   1.2574 
 H                    -6.79285   1.54614   1.2573 
 H                    -6.79316   0.033     2.13106 
 C                    -4.89634   0.53703   1.25753 
 H                    -4.53952   1.04131   0.38387 
 H                    -4.53984  -0.47183   1.25764 
 C                    -4.383     1.26301   2.51493 
 H                    -4.73982   0.75873   3.38859 
 H                    -4.73951   2.27187   2.51482 
 C                    -2.843     1.26277   2.51506 
 H                    -2.48618   1.76705   1.6414 
 H                    -2.48649   0.2539    2.51516 
 C                    -2.32966   1.98874   3.77245 
 H                    -2.68648   1.48446   4.64611 
 H                    -1.25966   1.98857   3.77254 
 H                    -2.68617   2.9976    3.77234 
 

 GradGradGradGradGradGradGradGradGradGradGradGradGradGradGradGradGradGrad
 Berny optimization.
 Initialization pass.
                           ----------------------------
                           !    Initial Parameters    !
                           ! (Angstroms and Degrees)  !
 --------------------------                            --------------------------
 ! Name  Definition              Value          Derivative Info.                !
 --------------------------------------------------------------------------------
 ! R1    R(1,2)                  1.07           estimate D2E/DX2                !
 ! R2    R(1,3)                  1.07           estimate D2E/DX2                !
 ! R3    R(1,4)                  1.07           estimate D2E/DX2                !
 ! R4    R(1,5)                  1.54           estimate D2E/DX2                !
 ! R5    R(5,6)                  1.07           estimate D2E/DX2                !
 ! R6    R(5,7)                  1.07           estimate D2E/DX2                !
 ! R7    R(5,8)                  1.54           estimate D2E/DX2                !
 ! R8    R(8,9)                  1.07           estimate D2E/DX2                !
 ! R9    R(8,10)                 1.07           estimate D2E/DX2                !
 ! R10   R(8,11)                 1.54           estimate D2E/DX2                !
 ! R11   R(11,12)                1.07           estimate D2E/DX2                !
 ! R12   R(11,13)                1.07           estimate D2E/DX2                !
 ! R13   R(11,14)                1.54           estimate D2E/DX2                !
 ! R14   R(14,15)                1.07           estimate D2E/DX2                !
 ! R15   R(14,16)                1.07           estimate D2E/DX2                !
 ! R16   R(14,17)                1.54           estimate D2E/DX2                !
 ! R17   R(17,18)                1.07           estimate D2E/DX2                !
 ! R18   R(17,19)                1.07           estimate D2E/DX2                !
 ! R19   R(17,20)                1.07           estimate D2E/DX2                !
 ! A1    A(2,1,3)              109.4712         estimate D2E/DX2                !
 ! A2    A(2,1,4)              109.4712         estimate D2E/DX2                !
 ! A3    A(2,1,5)              109.4712         estimate D2E/DX2                !
 ! A4    A(3,1,4)              109.4712         estimate D2E/DX2                !
 ! A5    A(3,1,5)              109.4712         estimate D2E/DX2                !
 ! A6    A(4,1,5)              109.4712         estimate D2E/DX2                !
 ! A7    A(1,5,6)              109.4712         estimate D2E/DX2                !
 ! A8    A(1,5,7)              109.4712         estimate D2E/DX2                !
 ! A9    A(1,5,8)              109.4712         estimate D2E/DX2                !
 ! A10   A(6,5,7)              109.4712         estimate D2E/DX2                !
 ! A11   A(6,5,8)              109.4712         estimate D2E/DX2                !
 ! A12   A(7,5,8)              109.4712         estimate D2E/DX2                !
 ! A13   A(5,8,9)              109.4712         estimate D2E/DX2                !
 ! A14   A(5,8,10)             109.4712         estimate D2E/DX2                !
 ! A15   A(5,8,11)             109.4712         estimate D2E/DX2                !
 ! A16   A(9,8,10)             109.4712         estimate D2E/DX2                !
 ! A17   A(9,8,11)             109.4712         estimate D2E/DX2                !
 ! A18   A(10,8,11)            109.4712         estimate D2E/DX2                !
 ! A19   A(8,11,12)            109.4712         estimate D2E/DX2                !
 ! A20   A(8,11,13)            109.4712         estimate D2E/DX2                !
 ! A21   A(8,11,14)            109.4712         estimate D2E/DX2                !
 ! A22   A(12,11,13)           109.4712         estimate D2E/DX2                !
 ! A23   A(12,11,14)           109.4712         estimate D2E/DX2                !
 ! A24   A(13,11,14)           109.4712         estimate D2E/DX2                !
 ! A25   A(11,14,15)           109.4712         estimate D2E/DX2                !
 ! A26   A(11,14,16)           109.4712         estimate D2E/DX2                !
 ! A27   A(11,14,17)           109.4712         estimate D2E/DX2                !
 ! A28   A(15,14,16)           109.4712         estimate D2E/DX2                !
 ! A29   A(15,14,17)           109.4712         estimate D2E/DX2                !
 ! A30   A(16,14,17)           109.4712         estimate D2E/DX2                !
 ! A31   A(14,17,18)           109.4712         estimate D2E/DX2                !
 ! A32   A(14,17,19)           109.4712         estimate D2E/DX2                !
 ! A33   A(14,17,20)           109.4712         estimate D2E/DX2                !
 ! A34   A(18,17,19)           109.4712         estimate D2E/DX2                !
 ! A35   A(18,17,20)           109.4712         estimate D2E/DX2                !
 ! A36   A(19,17,20)           109.4712         estimate D2E/DX2                !
 ! D1    D(2,1,5,6)           -180.0            estimate D2E/DX2                !
 ! D2    D(2,1,5,7)            -60.0            estimate D2E/DX2                !
 ! D3    D(2,1,5,8)             60.0            estimate D2E/DX2                !
 ! D4    D(3,1,5,6)             60.0            estimate D2E/DX2                !
 ! D5    D(3,1,5,7)            180.0            estimate D2E/DX2                !
 ! D6    D(3,1,5,8)            -60.0            estimate D2E/DX2                !
 ! D7    D(4,1,5,6)            -60.0            estimate D2E/DX2                !
 ! D8    D(4,1,5,7)             60.0            estimate D2E/DX2                !
 ! D9    D(4,1,5,8)            180.0            estimate D2E/DX2                !
 ! D10   D(1,5,8,9)             60.0            estimate D2E/DX2                !
 ! D11   D(1,5,8,10)           -60.0            estimate D2E/DX2                !
 ! D12   D(1,5,8,11)           180.0            estimate D2E/DX2                !
 ! D13   D(6,5,8,9)            -60.0            estimate D2E/DX2                !
 ! D14   D(6,5,8,10)           180.0            estimate D2E/DX2                !
 ! D15   D(6,5,8,11)            60.0            estimate D2E/DX2                !
 ! D16   D(7,5,8,9)            180.0            estimate D2E/DX2                !
 ! D17   D(7,5,8,10)            60.0            estimate D2E/DX2                !
 ! D18   D(7,5,8,11)           -60.0            estimate D2E/DX2                !
 ! D19   D(5,8,11,12)           60.0            estimate D2E/DX2                !
 ! D20   D(5,8,11,13)          -60.0            estimate D2E/DX2                !
 ! D21   D(5,8,11,14)         -180.0            estimate D2E/DX2                !
 ! D22   D(9,8,11,12)          180.0            estimate D2E/DX2                !
 ! D23   D(9,8,11,13)           60.0            estimate D2E/DX2                !
 ! D24   D(9,8,11,14)          -60.0            estimate D2E/DX2                !
 ! D25   D(10,8,11,12)         -60.0            estimate D2E/DX2                !
 ! D26   D(10,8,11,13)        -180.0            estimate D2E/DX2                !
 ! D27   D(10,8,11,14)          60.0            estimate D2E/DX2                !
 ! D28   D(8,11,14,15)          60.0            estimate D2E/DX2                !
 ! D29   D(8,11,14,16)         -60.0            estimate D2E/DX2                !
 ! D30   D(8,11,14,17)         180.0            estimate D2E/DX2                !
 ! D31   D(12,11,14,15)        180.0            estimate D2E/DX2                !
 ! D32   D(12,11,14,16)         60.0            estimate D2E/DX2                !
 ! D33   D(12,11,14,17)        -60.0            estimate D2E/DX2                !
 ! D34   D(13,11,14,15)        -60.0            estimate D2E/DX2                !
 ! D35   D(13,11,14,16)       -180.0            estimate D2E/DX2                !
 ! D36   D(13,11,14,17)         60.0            estimate D2E/DX2                !
 ! D37   D(11,14,17,18)         60.0            estimate D2E/DX2                !
 ! D38   D(11,14,17,19)        180.0            estimate D2E/DX2                !
 ! D39   D(11,14,17,20)        -60.0            estimate D2E/DX2                !
 ! D40   D(15,14,17,18)       -180.0            estimate D2E/DX2                !
 ! D41   D(15,14,17,19)        -60.0            estimate D2E/DX2                !
 ! D42   D(15,14,17,20)         60.0            estimate D2E/DX2                !
 ! D43   D(16,14,17,18)        -60.0            estimate D2E/DX2                !
 ! D44   D(16,14,17,19)         60.0            estimate D2E/DX2                !
 ! D45   D(16,14,17,20)        180.0            estimate D2E/DX2                !
 --------------------------------------------------------------------------------
 Trust Radius=3.00D-01 FncErr=1.00D-07 GrdErr=1.00D-06 EigMax=2.50D+02 EigMin=1.00D-04
 Number of steps in this run=    110 maximum allowed number of steps=    120.
 GradGradGradGradGradGradGradGradGradGradGradGradGradGradGradGradGradGrad

                          Input orientation:                          
 ---------------------------------------------------------------------
 Center     Atomic      Atomic             Coordinates (Angstroms)
 Number     Number       Type             X           Y           Z
 ---------------------------------------------------------------------
      1          6           0       -6.949686   -0.188698    0.000011
      2          1           0       -6.593179   -1.197560    0.000117
      3          1           0       -6.592866    0.315582   -0.873649
      4          1           0       -8.019686   -0.188529   -0.000079
      5          6           0       -6.436343    0.537278    1.257404
      6          1           0       -6.792850    1.546140    1.257298
      7          1           0       -6.793164    0.032997    2.131063
      8          6           0       -4.896343    0.537034    1.257534
      9          1           0       -4.539523    1.041315    0.383875
     10          1           0       -4.539837   -0.471828    1.257640
     11          6           0       -4.383001    1.263010    2.514927
     12          1           0       -4.739821    0.758730    3.388586
     13          1           0       -4.739508    2.271872    2.514821
     14          6           0       -2.843001    1.262766    2.515057
     15          1           0       -2.486181    1.767047    1.641398
     16          1           0       -2.486494    0.253904    2.515163
     17          6           0       -2.329659    1.988743    3.772450
     18          1           0       -2.686479    1.484462    4.646110
     19          1           0       -1.259659    1.988573    3.772540
     20          1           0       -2.686165    2.997605    3.772344
 ---------------------------------------------------------------------
                    Distance matrix (angstroms):
                    1          2          3          4          5
     1  C    0.000000
     2  H    1.070000   0.000000
     3  H    1.070000   1.747303   0.000000
     4  H    1.070000   1.747303   1.747303   0.000000
     5  C    1.540000   2.148263   2.148263   2.148263   0.000000
     6  H    2.148263   3.024610   2.468846   2.468846   1.070000
     7  H    2.148263   2.468846   3.024610   2.468846   1.070000
     8  C    2.514809   2.732978   2.732978   3.444314   1.540000
     9  H    2.732978   3.062243   2.514809   3.710993   2.148263
    10  H    2.732978   2.514809   3.062243   3.710993   2.148263
    11  C    3.875582   4.154945   4.154945   4.653783   2.514809
    12  H    4.154945   4.329403   4.668704   4.810184   2.732978
    13  H    4.154945   4.668704   4.329403   4.810184   2.732978
    14  C    5.029619   5.142175   5.142175   5.935506   3.875582
    15  H    5.142175   5.324484   5.029619   6.094128   4.154945
    16  H    5.142175   5.029619   5.324484   6.094128   4.154945
    17  C    6.349583   6.523851   6.523851   7.165815   5.029619
    18  H    6.523851   6.636324   6.862497   7.268361   5.142175
    19  H    7.165815   7.268361   7.268361   8.041791   5.935506
    20  H    6.523851   6.862497   6.636324   7.268361   5.142175
                    6          7          8          9         10
     6  H    0.000000
     7  H    1.747303   0.000000
     8  C    2.148263   2.148263   0.000000
     9  H    2.468846   3.024610   1.070000   0.000000
    10  H    3.024610   2.468846   1.070000   1.747303   0.000000
    11  C    2.732978   2.732978   1.540000   2.148263   2.148263
    12  H    3.062243   2.514809   2.148263   3.024610   2.468846
    13  H    2.514809   3.062243   2.148263   2.468846   3.024610
    14  C    4.154945   4.154945   2.514809   2.732978   2.732978
    15  H    4.329403   4.668704   2.732978   2.514809   3.062243
    16  H    4.668704   4.329403   2.732978   3.062243   2.514809
    17  C    5.142175   5.142175   3.875582   4.154945   4.154945
    18  H    5.324484   5.029619   4.154945   4.668704   4.329403
    19  H    6.094128   6.094128   4.653783   4.810184   4.810184
    20  H    5.029619   5.324484   4.154945   4.329403   4.668704
                   11         12         13         14         15
    11  C    0.000000
    12  H    1.070000   0.000000
    13  H    1.070000   1.747303   0.000000
    14  C    1.540000   2.148263   2.148263   0.000000
    15  H    2.148263   3.024610   2.468846   1.070000   0.000000
    16  H    2.148263   2.468846   3.024610   1.070000   1.747303
    17  C    2.514809   2.732978   2.732978   1.540000   2.148263
    18  H    2.732978   2.514809   3.062243   2.148263   3.024610
    19  H    3.444314   3.710993   3.710993   2.148263   2.468846
    20  H    2.732978   3.062243   2.514809   2.148263   2.468846
                   16         17         18         19         20
    16  H    0.000000
    17  C    2.148263   0.000000
    18  H    2.468846   1.070000   0.000000
    19  H    2.468846   1.070000   1.747303   0.000000
    20  H    3.024610   1.070000   1.747303   1.747303   0.000000
 Stoichiometry    C6H14
 Framework group  C2H[SGH(C6H2),X(H12)]
 Deg. of freedom    16
 Full point group                 C2H     NOp   4
 Largest Abelian subgroup         C2H     NOp   4
 Largest concise Abelian subgroup C2H     NOp   4
                         Standard orientation:                         
 ---------------------------------------------------------------------
 Center     Atomic      Atomic             Coordinates (Angstroms)
 Number     Number       Type             X           Y           Z
 ---------------------------------------------------------------------
      1          6           0       -0.444560    3.143512    0.000000
      2          1           0       -1.062324    3.143512    0.873651
      3          1           0       -1.062324    3.143512   -0.873651
      4          1           0        0.173205    4.017163    0.000000
      5          6           0        0.444560    1.886107    0.000000
      6          1           0        1.062325    1.886107   -0.873651
      7          1           0        1.062325    1.886107    0.873651
      8          6           0       -0.444560    0.628702    0.000000
      9          1           0       -1.062324    0.628702   -0.873651
     10          1           0       -1.062324    0.628702    0.873651
     11          6           0        0.444560   -0.628702    0.000000
     12          1           0        1.062324   -0.628702    0.873651
     13          1           0        1.062324   -0.628702   -0.873651
     14          6           0       -0.444560   -1.886107    0.000000
     15          1           0       -1.062325   -1.886107   -0.873651
     16          1           0       -1.062325   -1.886107    0.873651
     17          6           0        0.444560   -3.143512    0.000000
     18          1           0        1.062324   -3.143512    0.873651
     19          1           0       -0.173205   -4.017163    0.000000
     20          1           0        1.062324   -3.143512   -0.873651
 ---------------------------------------------------------------------
 Rotational constants (GHZ):          14.2974423           1.1715544           1.1274225
 Standard basis: 6-31G (6D, 7F)
 There are    29 symmetry adapted cartesian basis functions of AG  symmetry.
 There are    12 symmetry adapted cartesian basis functions of BG  symmetry.
 There are    12 symmetry adapted cartesian basis functions of AU  symmetry.
 There are    29 symmetry adapted cartesian basis functions of BU  symmetry.
 There are    29 symmetry adapted basis functions of AG  symmetry.
 There are    12 symmetry adapted basis functions of BG  symmetry.
 There are    12 symmetry adapted basis functions of AU  symmetry.
 There are    29 symmetry adapted basis functions of BU  symmetry.
    82 basis functions,   188 primitive gaussians,    82 cartesian basis functions
    25 alpha electrons       25 beta electrons
       nuclear repulsion energy       246.4469584661 Hartrees.
 NAtoms=   20 NActive=   20 NUniq=    7 SFac= 4.00D+00 NAtFMM=   60 NAOKFM=F Big=F
 Integral buffers will be    131072 words long.
 Raffenetti 2 integral format.
 Two-electron integral symmetry is turned on.
 One-electron integrals computed using PRISM.
 NBasis=    82 RedAO= T EigKep=  4.02D-03  NBF=    29    12    12    29
 NBsUse=    82 1.00D-06 EigRej= -1.00D+00 NBFU=    29    12    12    29
 ExpMin= 1.61D-01 ExpMax= 3.05D+03 ExpMxC= 4.57D+02 IAcc=3 IRadAn=         5 AccDes= 0.00D+00
 Harris functional with IExCor=  402 and IRadAn=       5 diagonalized for initial guess.
 HarFok:  IExCor=  402 AccDes= 0.00D+00 IRadAn=         5 IDoV= 1 UseB2=F ITyADJ=14
 ICtDFT=  3500011 ScaDFX=  1.000000  1.000000  1.000000  1.000000
 FoFCou: FMM=F IPFlag=           0 FMFlag=      100000 FMFlg1=           0
         NFxFlg=           0 DoJE=T BraDBF=F KetDBF=T FulRan=T
         wScrn=  0.000000 ICntrl=       500 IOpCl=  0 I1Cent=   200000004 NGrid=           0
         NMat0=    1 NMatS0=      1 NMatT0=    0 NMatD0=    1 NMtDS0=    0 NMtDT0=    0
 Petite list used in FoFCou.
 Initial guess orbital symmetries:
       Occupied  (BU) (AG) (BU) (AG) (BU) (AG) (AG) (BU) (AG) (BU)
                 (AG) (BU) (AU) (BG) (AG) (BU) (AU) (AG) (BU) (BG)
                 (BU) (AG) (AU) (BG) (AG)
       Virtual   (AG) (BU) (AU) (AG) (BU) (BU) (BG) (AG) (BU) (BU)
                 (AG) (AU) (BG) (BG) (AU) (BU) (AG) (AG) (BU) (AG)
                 (AG) (BU) (BG) (BU) (AU) (AU) (AG) (BU) (AG) (BG)
                 (BU) (AG) (AU) (BU) (BG) (BU) (AG) (AU) (BG) (AG)
                 (BU) (BU) (AU) (AG) (BU) (AG) (BG) (BU) (AG) (AG)
                 (AU) (BU) (BG) (AG) (BU) (AG) (BU)
 The electronic state of the initial guess is 1-AG.
 Keep R1 ints in memory in symmetry-blocked form, NReq=7299329.
 Requested convergence on RMS density matrix=1.00D-08 within 128 cycles.
 Requested convergence on MAX density matrix=1.00D-06.
 Requested convergence on             energy=1.00D-06.
 No special actions if energy rises.
 Integral accuracy reduced to 1.0D-05 until final iterations.
 Initial convergence to 1.0D-05 achieved.  Increase integral accuracy.
 SCF Done:  E(RB3LYP) =  -237.017932715     A.U. after   11 cycles
            NFock= 11  Conv=0.82D-08     -V/T= 2.0036

 **********************************************************************

            Population analysis using the SCF Density.

 **********************************************************************

 Orbital symmetries:
       Occupied  (BU) (AG) (AG) (BU) (BU) (AG) (AG) (BU) (AG) (BU)
                 (AG) (BU) (AU) (BG) (AG) (BU) (AU) (AG) (BU) (BG)
                 (BU) (AU) (BG) (AG) (AG)
       Virtual   (AG) (BU) (AU) (BU) (AG) (BG) (AG) (BU) (BU) (AU)
                 (AG) (BG) (BG) (AU) (BU) (AG) (BU) (AG) (BU) (AG)
                 (BU) (AG) (BG) (AU) (AU) (BU) (AG) (BU) (BG) (BU)
                 (AG) (AG) (AU) (BU) (BU) (BG) (AU) (AG) (BG) (AG)
                 (BU) (BU) (AU) (AG) (BU) (BG) (AG) (BU) (AG) (AG)
                 (AU) (BU) (BG) (AG) (BU) (AG) (BU)
 The electronic state is 1-AG.
 Alpha  occ. eigenvalues --  -10.16167 -10.16166 -10.15935 -10.15922 -10.15306
 Alpha  occ. eigenvalues --  -10.15306  -0.80577  -0.76675  -0.70707  -0.63606
 Alpha  occ. eigenvalues --   -0.58247  -0.58051  -0.48540  -0.45057  -0.42996
 Alpha  occ. eigenvalues --   -0.42023  -0.40302  -0.37553  -0.36704  -0.35832
 Alpha  occ. eigenvalues --   -0.33859  -0.33284  -0.32808  -0.32377  -0.28651
 Alpha virt. eigenvalues --    0.09249   0.10766   0.12949   0.14045   0.14210
 Alpha virt. eigenvalues --    0.17305   0.17848   0.18005   0.19583   0.19854
 Alpha virt. eigenvalues --    0.20100   0.20250   0.22364   0.22648   0.23606
 Alpha virt. eigenvalues --    0.23885   0.26249   0.28112   0.29298   0.50558
 Alpha virt. eigenvalues --    0.53941   0.55314   0.57108   0.57769   0.59773
 Alpha virt. eigenvalues --    0.59867   0.62415   0.65295   0.66363   0.69827
 Alpha virt. eigenvalues --    0.69963   0.74513   0.78877   0.80624   0.82632
 Alpha virt. eigenvalues --    0.84397   0.90822   0.91891   0.95067   0.96313
 Alpha virt. eigenvalues --    0.96931   0.98348   1.00385   1.01037   1.02567
 Alpha virt. eigenvalues --    1.03385   1.03781   1.04542   1.06087   1.08810
 Alpha virt. eigenvalues --    1.09591   1.33034   1.36932   1.43735   1.48347
 Alpha virt. eigenvalues --    1.56184   1.85775
          Condensed to atoms (all electrons):
               1          2          3          4          5          6
     1  C    5.080505   0.382072   0.382072   0.369377   0.327466  -0.041833
     2  H    0.382072   0.592689  -0.034016  -0.032600  -0.039268   0.005723
     3  H    0.382072  -0.034016   0.592689  -0.032600  -0.039268  -0.005142
     4  H    0.369377  -0.032600  -0.032600   0.601581  -0.032770  -0.002706
     5  C    0.327466  -0.039268  -0.039268  -0.032770   5.055530   0.383685
     6  H   -0.041833   0.005723  -0.005142  -0.002706   0.383685   0.619413
     7  H   -0.041833  -0.005142   0.005723  -0.002706   0.383685  -0.040444
     8  C   -0.053415  -0.005317  -0.005317   0.005318   0.337300  -0.043061
     9  H   -0.003066  -0.000618   0.005527   0.000012  -0.043763  -0.006113
    10  H   -0.003066   0.005527  -0.000618   0.000012  -0.043763   0.006186
    11  C    0.005492   0.000083   0.000083  -0.000235  -0.046069  -0.003615
    12  H    0.000067   0.000002   0.000008   0.000002  -0.003559  -0.000626
    13  H    0.000067   0.000008   0.000002   0.000002  -0.003559   0.005297
    14  C   -0.000231   0.000000   0.000000   0.000003   0.005331   0.000056
    15  H    0.000002   0.000001  -0.000003   0.000000   0.000056   0.000005
    16  H    0.000002  -0.000003   0.000001   0.000000   0.000056   0.000005
    17  C    0.000002   0.000000   0.000000   0.000000  -0.000231   0.000002
    18  H    0.000000   0.000000   0.000000   0.000000   0.000000   0.000001
    19  H    0.000000   0.000000   0.000000   0.000000   0.000003   0.000000
    20  H    0.000000   0.000000   0.000000   0.000000   0.000000  -0.000003
               7          8          9         10         11         12
     1  C   -0.041833  -0.053415  -0.003066  -0.003066   0.005492   0.000067
     2  H   -0.005142  -0.005317  -0.000618   0.005527   0.000083   0.000002
     3  H    0.005723  -0.005317   0.005527  -0.000618   0.000083   0.000008
     4  H   -0.002706   0.005318   0.000012   0.000012  -0.000235   0.000002
     5  C    0.383685   0.337300  -0.043763  -0.043763  -0.046069  -0.003559
     6  H   -0.040444  -0.043061  -0.006113   0.006186  -0.003615  -0.000626
     7  H    0.619413  -0.043061   0.006186  -0.006113  -0.003615   0.005297
     8  C   -0.043061   5.081571   0.381320   0.381320   0.327365  -0.042658
     9  H    0.006186   0.381320   0.623357  -0.041465  -0.042658   0.006167
    10  H   -0.006113   0.381320  -0.041465   0.623357  -0.042658  -0.006074
    11  C   -0.003615   0.327365  -0.042658  -0.042658   5.081571   0.381320
    12  H    0.005297  -0.042658   0.006167  -0.006074   0.381320   0.623357
    13  H   -0.000626  -0.042658  -0.006074   0.006167   0.381320  -0.041465
    14  C    0.000056  -0.046069  -0.003559  -0.003559   0.337300  -0.043763
    15  H    0.000005  -0.003615   0.005297  -0.000626  -0.043061   0.006186
    16  H    0.000005  -0.003615  -0.000626   0.005297  -0.043061  -0.006113
    17  C    0.000002   0.005492   0.000067   0.000067  -0.053415  -0.003066
    18  H   -0.000003   0.000083   0.000008   0.000002  -0.005317   0.005527
    19  H    0.000000  -0.000235   0.000002   0.000002   0.005318   0.000012
    20  H    0.000001   0.000083   0.000002   0.000008  -0.005317  -0.000618
              13         14         15         16         17         18
     1  C    0.000067  -0.000231   0.000002   0.000002   0.000002   0.000000
     2  H    0.000008   0.000000   0.000001  -0.000003   0.000000   0.000000
     3  H    0.000002   0.000000  -0.000003   0.000001   0.000000   0.000000
     4  H    0.000002   0.000003   0.000000   0.000000   0.000000   0.000000
     5  C   -0.003559   0.005331   0.000056   0.000056  -0.000231   0.000000
     6  H    0.005297   0.000056   0.000005   0.000005   0.000002   0.000001
     7  H   -0.000626   0.000056   0.000005   0.000005   0.000002  -0.000003
     8  C   -0.042658  -0.046069  -0.003615  -0.003615   0.005492   0.000083
     9  H   -0.006074  -0.003559   0.005297  -0.000626   0.000067   0.000008
    10  H    0.006167  -0.003559  -0.000626   0.005297   0.000067   0.000002
    11  C    0.381320   0.337300  -0.043061  -0.043061  -0.053415  -0.005317
    12  H   -0.041465  -0.043763   0.006186  -0.006113  -0.003066   0.005527
    13  H    0.623357  -0.043763  -0.006113   0.006186  -0.003066  -0.000618
    14  C   -0.043763   5.055530   0.383685   0.383685   0.327466  -0.039268
    15  H   -0.006113   0.383685   0.619413  -0.040444  -0.041833   0.005723
    16  H    0.006186   0.383685  -0.040444   0.619413  -0.041833  -0.005142
    17  C   -0.003066   0.327466  -0.041833  -0.041833   5.080505   0.382072
    18  H   -0.000618  -0.039268   0.005723  -0.005142   0.382072   0.592689
    19  H    0.000012  -0.032770  -0.002706  -0.002706   0.369377  -0.032600
    20  H    0.005527  -0.039268  -0.005142   0.005723   0.382072  -0.034016
              19         20
     1  C    0.000000   0.000000
     2  H    0.000000   0.000000
     3  H    0.000000   0.000000
     4  H    0.000000   0.000000
     5  C    0.000003   0.000000
     6  H    0.000000  -0.000003
     7  H    0.000000   0.000001
     8  C   -0.000235   0.000083
     9  H    0.000002   0.000002
    10  H    0.000002   0.000008
    11  C    0.005318  -0.005317
    12  H    0.000012  -0.000618
    13  H    0.000012   0.005527
    14  C   -0.032770  -0.039268
    15  H   -0.002706  -0.005142
    16  H   -0.002706   0.005723
    17  C    0.369377   0.382072
    18  H   -0.032600  -0.034016
    19  H    0.601581  -0.032600
    20  H   -0.032600   0.592689
 Mulliken charges:
               1
     1  C   -0.403679
     2  H    0.130860
     3  H    0.130860
     4  H    0.127312
     5  C   -0.240862
     6  H    0.123170
     7  H    0.123170
     8  C   -0.230829
     9  H    0.119999
    10  H    0.119999
    11  C   -0.230829
    12  H    0.119999
    13  H    0.119999
    14  C   -0.240862
    15  H    0.123170
    16  H    0.123170
    17  C   -0.403679
    18  H    0.130860
    19  H    0.127312
    20  H    0.130860
 Sum of Mulliken charges =   0.00000
 Mulliken charges with hydrogens summed into heavy atoms:
               1
     1  C   -0.014648
     5  C    0.005478
     8  C    0.009169
    11  C    0.009169
    14  C    0.005478
    17  C   -0.014648
 Electronic spatial extent (au):  <R**2>=           1105.3734
 Charge=              0.0000 electrons
 Dipole moment (field-independent basis, Debye):
    X=              0.0000    Y=              0.0000    Z=              0.0000  Tot=              0.0000
 Quadrupole moment (field-independent basis, Debye-Ang):
   XX=            -41.6604   YY=            -43.0395   ZZ=            -40.3522
   XY=              0.5301   XZ=              0.0000   YZ=              0.0000
 Traceless Quadrupole moment (field-independent basis, Debye-Ang):
   XX=              0.0236   YY=             -1.3555   ZZ=              1.3319
   XY=              0.5301   XZ=              0.0000   YZ=              0.0000
 Octapole moment (field-independent basis, Debye-Ang**2):
  XXX=              0.0000  YYY=              0.0000  ZZZ=              0.0000  XYY=              0.0000
  XXY=              0.0000  XXZ=              0.0000  XZZ=              0.0000  YZZ=              0.0000
  YYZ=              0.0000  XYZ=              0.0000
 Hexadecapole moment (field-independent basis, Debye-Ang**3):
 XXXX=           -145.4042 YYYY=          -1334.7590 ZZZZ=            -81.2872 XXXY=             42.2787
 XXXZ=              0.0000 YYYX=             58.9437 YYYZ=              0.0000 ZZZX=              0.0000
 ZZZY=              0.0000 XXYY=           -242.4089 XXZZ=            -34.6545 YYZZ=           -228.7561
 XXYZ=              0.0000 YYXZ=              0.0000 ZZXY=             12.2577
 N-N= 2.464469584661D+02 E-N=-1.041149898758D+03  KE= 2.361651668264D+02
 Symmetry AG   KE= 1.135848569216D+02
 Symmetry BG   KE= 6.099221699176D+00
 Symmetry AU   KE= 5.904912527048D+00
 Symmetry BU   KE= 1.105761756785D+02
 Calling FoFJK, ICntrl=      2127 FMM=F ISym2X=1 I1Cent= 0 IOpClX= 0 NMat=1 NMatS=1 NMatT=0.
 ***** Axes restored to original set *****
 -------------------------------------------------------------------
 Center     Atomic                   Forces (Hartrees/Bohr)
 Number     Number              X              Y              Z
 -------------------------------------------------------------------
      1        6           0.000015021    0.012011787    0.020801415
      2        1           0.004430531   -0.017581571   -0.002965274
      3        1           0.004435459    0.006218891   -0.016708866
      4        1          -0.018414244   -0.002693838   -0.004671656
      5        6           0.017437646   -0.016686244   -0.028890148
      6        1          -0.007397839    0.017686970    0.003117751
      7        1          -0.007402773   -0.006138596    0.016875838
      8        6          -0.025363756    0.017203536    0.029783125
      9        1           0.007739443    0.006724095   -0.016764775
     10        1           0.007734347   -0.017883557   -0.002555072
     11        6           0.025363756   -0.017203536   -0.029783125
     12        1          -0.007739443   -0.006724095    0.016764775
     13        1          -0.007734347    0.017883557    0.002555072
     14        6          -0.017437646    0.016686244    0.028890148
     15        1           0.007402773    0.006138596   -0.016875838
     16        1           0.007397839   -0.017686970   -0.003117751
     17        6          -0.000015021   -0.012011787   -0.020801415
     18        1          -0.004435459   -0.006218891    0.016708866
     19        1           0.018414244    0.002693838    0.004671656
     20        1          -0.004430531    0.017581571    0.002965274
 -------------------------------------------------------------------
 Cartesian Forces:  Max     0.029783125 RMS     0.014595170

 GradGradGradGradGradGradGradGradGradGradGradGradGradGradGradGradGradGrad
 Berny optimization.
 FormGI is forming the generalized inverse of G from B-inverse, IUseBI=4.
 Internal  Forces:  Max     0.019438439 RMS     0.008088562
 Search for a local minimum.
 Step number   1 out of a maximum of  110
 All quantities printed in internal units (Hartrees-Bohrs-Radians)
 Mixed Optimization -- RFO/linear search
 Second derivative matrix not updated -- first step.
 ITU=  0
     Eigenvalues ---    0.00237   0.00237   0.00237   0.00237   0.00237
     Eigenvalues ---    0.03840   0.03840   0.03840   0.03840   0.04896
     Eigenvalues ---    0.04896   0.04896   0.04896   0.05720   0.05720
     Eigenvalues ---    0.05720   0.05720   0.07655   0.07655   0.07655
     Eigenvalues ---    0.07655   0.11701   0.11701   0.11701   0.11701
     Eigenvalues ---    0.16000   0.16000   0.16000   0.16000   0.16000
     Eigenvalues ---    0.16000   0.21948   0.21948   0.21948   0.21948
     Eigenvalues ---    0.28519   0.28519   0.28519   0.28519   0.28519
     Eigenvalues ---    0.37230   0.37230   0.37230   0.37230   0.37230
     Eigenvalues ---    0.37230   0.37230   0.37230   0.37230   0.37230
     Eigenvalues ---    0.37230   0.37230   0.37230   0.37230
 RFO step:  Lambda=-2.07996684D-02 EMin= 2.36824147D-03
 Linear search not attempted -- first point.
 Iteration  1 RMS(Cart)=  0.07044739 RMS(Int)=  0.00063192
 Iteration  2 RMS(Cart)=  0.00088372 RMS(Int)=  0.00021213
 Iteration  3 RMS(Cart)=  0.00000042 RMS(Int)=  0.00021213
 ClnCor:  largest displacement from symmetrization is 1.43D-08 for atom    19.
 Variable       Old X    -DE/DX   Delta X   Delta X   Delta X     New X
                                 (Linear)    (Quad)   (Total)
    R1        2.02201   0.01805   0.00000   0.04592   0.04592   2.06793
    R2        2.02201   0.01805   0.00000   0.04592   0.04592   2.06793
    R3        2.02201   0.01841   0.00000   0.04684   0.04684   2.06885
    R4        2.91018   0.00704   0.00000   0.02299   0.02299   2.93317
    R5        2.02201   0.01914   0.00000   0.04869   0.04869   2.07070
    R6        2.02201   0.01914   0.00000   0.04869   0.04869   2.07070
    R7        2.91018   0.00690   0.00000   0.02254   0.02254   2.93271
    R8        2.02201   0.01944   0.00000   0.04945   0.04945   2.07146
    R9        2.02201   0.01944   0.00000   0.04945   0.04945   2.07146
   R10        2.91018   0.00775   0.00000   0.02532   0.02532   2.93550
   R11        2.02201   0.01944   0.00000   0.04945   0.04945   2.07146
   R12        2.02201   0.01944   0.00000   0.04945   0.04945   2.07146
   R13        2.91018   0.00690   0.00000   0.02254   0.02254   2.93271
   R14        2.02201   0.01914   0.00000   0.04869   0.04869   2.07070
   R15        2.02201   0.01914   0.00000   0.04869   0.04869   2.07070
   R16        2.91018   0.00704   0.00000   0.02299   0.02299   2.93317
   R17        2.02201   0.01805   0.00000   0.04592   0.04592   2.06793
   R18        2.02201   0.01841   0.00000   0.04684   0.04684   2.06885
   R19        2.02201   0.01805   0.00000   0.04592   0.04592   2.06793
    A1        1.91063  -0.00343   0.00000  -0.02181  -0.02187   1.88876
    A2        1.91063  -0.00446   0.00000  -0.02324  -0.02360   1.88703
    A3        1.91063   0.00295   0.00000   0.01561   0.01538   1.92602
    A4        1.91063  -0.00446   0.00000  -0.02324  -0.02360   1.88703
    A5        1.91063   0.00295   0.00000   0.01561   0.01538   1.92602
    A6        1.91063   0.00645   0.00000   0.03707   0.03669   1.94732
    A7        1.91063  -0.00281   0.00000  -0.00455  -0.00475   1.90589
    A8        1.91063  -0.00281   0.00000  -0.00455  -0.00475   1.90589
    A9        1.91063   0.01241   0.00000   0.06078   0.06043   1.97107
   A10        1.91063   0.00021   0.00000  -0.02851  -0.02883   1.88180
   A11        1.91063  -0.00350   0.00000  -0.01158  -0.01205   1.89858
   A12        1.91063  -0.00350   0.00000  -0.01158  -0.01205   1.89858
   A13        1.91063  -0.00394   0.00000  -0.01163  -0.01203   1.89861
   A14        1.91063  -0.00394   0.00000  -0.01163  -0.01203   1.89861
   A15        1.91063   0.01471   0.00000   0.07055   0.07019   1.98082
   A16        1.91063   0.00077   0.00000  -0.02683  -0.02726   1.88338
   A17        1.91063  -0.00380   0.00000  -0.01023  -0.01057   1.90006
   A18        1.91063  -0.00380   0.00000  -0.01023  -0.01057   1.90006
   A19        1.91063  -0.00380   0.00000  -0.01023  -0.01057   1.90006
   A20        1.91063  -0.00380   0.00000  -0.01023  -0.01057   1.90006
   A21        1.91063   0.01471   0.00000   0.07055   0.07019   1.98082
   A22        1.91063   0.00077   0.00000  -0.02683  -0.02726   1.88338
   A23        1.91063  -0.00394   0.00000  -0.01163  -0.01203   1.89861
   A24        1.91063  -0.00394   0.00000  -0.01163  -0.01203   1.89861
   A25        1.91063  -0.00350   0.00000  -0.01158  -0.01205   1.89858
   A26        1.91063  -0.00350   0.00000  -0.01158  -0.01205   1.89858
   A27        1.91063   0.01241   0.00000   0.06078   0.06043   1.97107
   A28        1.91063   0.00021   0.00000  -0.02851  -0.02883   1.88180
   A29        1.91063  -0.00281   0.00000  -0.00455  -0.00475   1.90589
   A30        1.91063  -0.00281   0.00000  -0.00455  -0.00475   1.90589
   A31        1.91063   0.00295   0.00000   0.01561   0.01538   1.92602
   A32        1.91063   0.00645   0.00000   0.03707   0.03669   1.94732
   A33        1.91063   0.00295   0.00000   0.01561   0.01538   1.92602
   A34        1.91063  -0.00446   0.00000  -0.02324  -0.02360   1.88703
   A35        1.91063  -0.00343   0.00000  -0.02181  -0.02187   1.88876
   A36        1.91063  -0.00446   0.00000  -0.02324  -0.02360   1.88703
    D1        3.14159   0.00130   0.00000   0.01645   0.01645  -3.12514
    D2       -1.04720  -0.00189   0.00000  -0.02405  -0.02421  -1.07141
    D3        1.04720  -0.00030   0.00000  -0.00380  -0.00388   1.04332
    D4        1.04720   0.00189   0.00000   0.02405   0.02421   1.07141
    D5        3.14159  -0.00130   0.00000  -0.01645  -0.01645   3.12514
    D6       -1.04720   0.00030   0.00000   0.00380   0.00388  -1.04332
    D7       -1.04720   0.00159   0.00000   0.02025   0.02033  -1.02687
    D8        1.04720  -0.00159   0.00000  -0.02025  -0.02033   1.02687
    D9        3.14159   0.00000   0.00000   0.00000   0.00000   3.14159
   D10        1.04720  -0.00194   0.00000  -0.02355  -0.02351   1.02368
   D11       -1.04720   0.00194   0.00000   0.02355   0.02351  -1.02368
   D12        3.14159   0.00000   0.00000   0.00000   0.00000   3.14159
   D13       -1.04720  -0.00395   0.00000  -0.04810  -0.04798  -1.09518
   D14        3.14159  -0.00007   0.00000  -0.00100  -0.00096   3.14064
   D15        1.04720  -0.00201   0.00000  -0.02455  -0.02447   1.02273
   D16        3.14159   0.00007   0.00000   0.00100   0.00096  -3.14064
   D17        1.04720   0.00395   0.00000   0.04810   0.04798   1.09518
   D18       -1.04720   0.00201   0.00000   0.02455   0.02447  -1.02273
   D19        1.04720  -0.00186   0.00000  -0.02269  -0.02270   1.02450
   D20       -1.04720   0.00186   0.00000   0.02269   0.02270  -1.02450
   D21        3.14159   0.00000   0.00000   0.00000   0.00000   3.14159
   D22        3.14159   0.00000   0.00000   0.00000   0.00000   3.14159
   D23        1.04720   0.00371   0.00000   0.04539   0.04540   1.09259
   D24       -1.04720   0.00186   0.00000   0.02269   0.02270  -1.02450
   D25       -1.04720  -0.00371   0.00000  -0.04539  -0.04540  -1.09259
   D26        3.14159   0.00000   0.00000   0.00000   0.00000   3.14159
   D27        1.04720  -0.00186   0.00000  -0.02269  -0.02270   1.02450
   D28        1.04720  -0.00201   0.00000  -0.02455  -0.02447   1.02273
   D29       -1.04720   0.00201   0.00000   0.02455   0.02447  -1.02273
   D30        3.14159   0.00000   0.00000   0.00000   0.00000   3.14159
   D31        3.14159  -0.00007   0.00000  -0.00100  -0.00096   3.14064
   D32        1.04720   0.00395   0.00000   0.04810   0.04798   1.09518
   D33       -1.04720   0.00194   0.00000   0.02355   0.02351  -1.02368
   D34       -1.04720  -0.00395   0.00000  -0.04810  -0.04798  -1.09518
   D35       -3.14159   0.00007   0.00000   0.00100   0.00096  -3.14064
   D36        1.04720  -0.00194   0.00000  -0.02355  -0.02351   1.02368
   D37        1.04720  -0.00030   0.00000  -0.00380  -0.00388   1.04332
   D38       -3.14159   0.00000   0.00000   0.00000   0.00000  -3.14159
   D39       -1.04720   0.00030   0.00000   0.00380   0.00388  -1.04332
   D40        3.14159   0.00130   0.00000   0.01645   0.01645  -3.12514
   D41       -1.04720   0.00159   0.00000   0.02025   0.02033  -1.02687
   D42        1.04720   0.00189   0.00000   0.02405   0.02421   1.07141
   D43       -1.04720  -0.00189   0.00000  -0.02405  -0.02421  -1.07141
   D44        1.04720  -0.00159   0.00000  -0.02025  -0.02033   1.02687
   D45        3.14159  -0.00130   0.00000  -0.01645  -0.01645   3.12514
         Item               Value     Threshold  Converged?
 Maximum Force            0.019438     0.000450     NO 
 RMS     Force            0.008089     0.000300     NO 
 Maximum Displacement     0.189271     0.001800     NO 
 RMS     Displacement     0.069656     0.001200     NO 
 Predicted change in Energy=-1.132990D-02
 GradGradGradGradGradGradGradGradGradGradGradGradGradGradGradGradGradGrad

                          Input orientation:                          
 ---------------------------------------------------------------------
 Center     Atomic      Atomic             Coordinates (Angstroms)
 Number     Number       Type             X           Y           Z
 ---------------------------------------------------------------------
      1          6           0       -7.025152   -0.215523   -0.046471
      2          1           0       -6.677820   -1.252972   -0.070115
      3          1           0       -6.677503    0.282480   -0.956762
      4          1           0       -8.119844   -0.222606   -0.059129
      5          6           0       -6.473602    0.509920    1.210013
      6          1           0       -6.845968    1.540386    1.223666
      7          1           0       -6.846285    0.006761    2.109259
      8          6           0       -4.922738    0.538379    1.259853
      9          1           0       -4.549922    1.042587    0.360761
     10          1           0       -4.550240   -0.492479    1.247186
     11          6           0       -4.356607    1.261666    2.512608
     12          1           0       -4.729423    0.757457    3.411699
     13          1           0       -4.729105    2.292523    2.525275
     14          6           0       -2.805743    1.290125    2.562448
     15          1           0       -2.433059    1.793283    1.663202
     16          1           0       -2.433377    0.259658    2.548795
     17          6           0       -2.254193    2.015568    3.818932
     18          1           0       -2.601842    1.517565    4.729223
     19          1           0       -1.159500    2.022651    3.831590
     20          1           0       -2.601524    3.053016    3.842576
 ---------------------------------------------------------------------
                    Distance matrix (angstroms):
                    1          2          3          4          5
     1  C    0.000000
     2  H    1.094302   0.000000
     3  H    1.094302   1.773063   0.000000
     4  H    1.094788   1.772345   1.772345   0.000000
     5  C    1.552168   2.188199   2.188199   2.203957   0.000000
     6  H    2.174528   3.083017   2.522890   2.525167   1.095767
     7  H    2.174528   2.522890   3.083017   2.525167   1.095767
     8  C    2.587468   2.838673   2.838673   3.541228   1.551926
     9  H    2.806322   3.159620   2.615384   3.810691   2.169218
    10  H    2.806322   2.615384   3.159620   3.810691   2.169218
    11  C    3.981470   4.287411   4.287411   4.793626   2.596834
    12  H    4.263332   4.467786   4.806670   4.949963   2.819727
    13  H    4.263332   4.806670   4.467786   4.949963   2.819727
    14  C    5.184288   5.328294   5.328294   6.115611   3.986351
    15  H    5.295809   5.504730   5.211721   6.274532   4.263612
    16  H    5.295809   5.211721   5.504730   6.274532   4.263612
    17  C    6.533081   6.736209   6.736209   7.379339   5.184288
    18  H    6.736209   6.879180   7.104004   7.510317   5.328294
    19  H    7.379339   7.510317   7.510317   8.284036   6.115611
    20  H    6.736209   7.104004   6.879180   7.510317   5.328294
                    6          7          8          9         10
     6  H    0.000000
     7  H    1.770955   0.000000
     8  C    2.168903   2.168903   0.000000
     9  H    2.502845   3.066506   1.096167   0.000000
    10  H    3.066506   2.502845   1.096167   1.772619   0.000000
    11  C    2.817086   2.817086   1.553398   2.171592   2.171592
    12  H    3.143284   2.596344   2.171592   3.069486   2.505906
    13  H    2.596344   3.143284   2.171592   2.505906   3.069486
    14  C    4.263612   4.263612   2.596834   2.819727   2.819727
    15  H    4.441949   4.781965   2.817086   2.596344   3.143284
    16  H    4.781965   4.441949   2.817086   3.143284   2.596344
    17  C    5.295809   5.295809   3.981470   4.263332   4.263332
    18  H    5.504730   5.211721   4.287411   4.806670   4.467786
    19  H    6.274532   6.274532   4.793626   4.949963   4.949963
    20  H    5.211721   5.504730   4.287411   4.467786   4.806670
                   11         12         13         14         15
    11  C    0.000000
    12  H    1.096167   0.000000
    13  H    1.096167   1.772619   0.000000
    14  C    1.551926   2.169218   2.169218   0.000000
    15  H    2.168903   3.066506   2.502845   1.095767   0.000000
    16  H    2.168903   2.502845   3.066506   1.095767   1.770955
    17  C    2.587468   2.806322   2.806322   1.552168   2.174528
    18  H    2.838673   2.615384   3.159620   2.188199   3.083017
    19  H    3.541228   3.810691   3.810691   2.203957   2.525167
    20  H    2.838673   3.159620   2.615384   2.188199   2.522890
                   16         17         18         19         20
    16  H    0.000000
    17  C    2.174528   0.000000
    18  H    2.522890   1.094302   0.000000
    19  H    2.525167   1.094788   1.772345   0.000000
    20  H    3.083017   1.094302   1.773063   1.772345   0.000000
 Stoichiometry    C6H14
 Framework group  C2H[SGH(C6H2),X(H12)]
 Deg. of freedom    16
 Full point group                 C2H     NOp   4
 Largest Abelian subgroup         C2H     NOp   4
 Largest concise Abelian subgroup C2H     NOp   4
                         Standard orientation:                         
 ---------------------------------------------------------------------
 Center     Atomic      Atomic             Coordinates (Angstroms)
 Number     Number       Type             X           Y           Z
 ---------------------------------------------------------------------
      1          6           0        1.436835    2.933563    0.000000
      2          1           0        0.920400    3.314158    0.886532
      3          1           0        0.920400    3.314158   -0.886532
      4          1           0        2.454930    3.336110    0.000000
      5          6           0        1.436835    1.381395    0.000000
      6          1           0        1.972357    1.021047   -0.885478
      7          1           0        1.972357    1.021047    0.885478
      8          6           0        0.007580    0.776662    0.000000
      9          1           0       -0.527831    1.136348   -0.886309
     10          1           0       -0.527831    1.136348    0.886309
     11          6           0       -0.007580   -0.776662    0.000000
     12          1           0        0.527831   -1.136348    0.886309
     13          1           0        0.527831   -1.136348   -0.886309
     14          6           0       -1.436835   -1.381395    0.000000
     15          1           0       -1.972357   -1.021047   -0.885478
     16          1           0       -1.972357   -1.021047    0.885478
     17          6           0       -1.436835   -2.933563    0.000000
     18          1           0       -0.920400   -3.314158    0.886532
     19          1           0       -2.454930   -3.336110    0.000000
     20          1           0       -0.920400   -3.314158   -0.886532
 ---------------------------------------------------------------------
 Rotational constants (GHZ):          14.4553020           1.1024125           1.0653022
 Standard basis: 6-31G (6D, 7F)
 There are    29 symmetry adapted cartesian basis functions of AG  symmetry.
 There are    12 symmetry adapted cartesian basis functions of BG  symmetry.
 There are    12 symmetry adapted cartesian basis functions of AU  symmetry.
 There are    29 symmetry adapted cartesian basis functions of BU  symmetry.
 There are    29 symmetry adapted basis functions of AG  symmetry.
 There are    12 symmetry adapted basis functions of BG  symmetry.
 There are    12 symmetry adapted basis functions of AU  symmetry.
 There are    29 symmetry adapted basis functions of BU  symmetry.
    82 basis functions,   188 primitive gaussians,    82 cartesian basis functions
    25 alpha electrons       25 beta electrons
       nuclear repulsion energy       241.4086876275 Hartrees.
 NAtoms=   20 NActive=   20 NUniq=    7 SFac= 4.00D+00 NAtFMM=   60 NAOKFM=F Big=F
 Integral buffers will be    131072 words long.
 Raffenetti 2 integral format.
 Two-electron integral symmetry is turned on.
 One-electron integrals computed using PRISM.
 NBasis=    82 RedAO= T EigKep=  4.69D-03  NBF=    29    12    12    29
 NBsUse=    82 1.00D-06 EigRej= -1.00D+00 NBFU=    29    12    12    29
 Initial guess from the checkpoint file:  "C:\Users\tkmeldrum\Documents\MDworking\C6H14.chk"
 B after Tr=     0.000000    0.000000    0.000000
         Rot=    0.956562    0.000000    0.000000    0.291530 Ang=  33.90 deg.
 Initial guess orbital symmetries:
       Occupied  (BU) (AG) (AG) (BU) (BU) (AG) (AG) (BU) (AG) (BU)
                 (AG) (BU) (AU) (BG) (AG) (BU) (AU) (AG) (BU) (BG)
                 (BU) (AU) (BG) (AG) (AG)
       Virtual   (AG) (BU) (AU) (BU) (AG) (BG) (AG) (BU) (BU) (AU)
                 (AG) (BG) (BG) (AU) (BU) (AG) (BU) (AG) (BU) (AG)
                 (BU) (AG) (BG) (AU) (AU) (BU) (AG) (BU) (BG) (BU)
                 (AG) (AG) (AU) (BU) (BU) (BG) (AU) (AG) (BG) (AG)
                 (BU) (BU) (AU) (AG) (BU) (BG) (AG) (BU) (AG) (AG)
                 (AU) (BU) (BG) (AG) (BU) (AG) (BU)
 ExpMin= 1.61D-01 ExpMax= 3.05D+03 ExpMxC= 4.57D+02 IAcc=3 IRadAn=         5 AccDes= 0.00D+00
 Harris functional with IExCor=  402 and IRadAn=       5 diagonalized for initial guess.
 HarFok:  IExCor=  402 AccDes= 0.00D+00 IRadAn=         5 IDoV= 1 UseB2=F ITyADJ=14
 ICtDFT=  3500011 ScaDFX=  1.000000  1.000000  1.000000  1.000000
 FoFCou: FMM=F IPFlag=           0 FMFlag=      100000 FMFlg1=           0
         NFxFlg=           0 DoJE=T BraDBF=F KetDBF=T FulRan=T
         wScrn=  0.000000 ICntrl=       500 IOpCl=  0 I1Cent=   200000004 NGrid=           0
         NMat0=    1 NMatS0=      1 NMatT0=    0 NMatD0=    1 NMtDS0=    0 NMtDT0=    0
 Petite list used in FoFCou.
 Keep R1 ints in memory in symmetry-blocked form, NReq=7299329.
 Requested convergence on RMS density matrix=1.00D-08 within 128 cycles.
 Requested convergence on MAX density matrix=1.00D-06.
 Requested convergence on             energy=1.00D-06.
 No special actions if energy rises.
 Integral accuracy reduced to 1.0D-05 until final iterations.
 Initial convergence to 1.0D-05 achieved.  Increase integral accuracy.
 SCF Done:  E(RB3LYP) =  -237.028293005     A.U. after   10 cycles
            NFock= 10  Conv=0.14D-08     -V/T= 2.0063
 Calling FoFJK, ICntrl=      2127 FMM=F ISym2X=1 I1Cent= 0 IOpClX= 0 NMat=1 NMatS=1 NMatT=0.
 ***** Axes restored to original set *****
 -------------------------------------------------------------------
 Center     Atomic                   Forces (Hartrees/Bohr)
 Number     Number              X              Y              Z
 -------------------------------------------------------------------
      1        6           0.004015826    0.004309799    0.007464934
      2        1           0.000208316   -0.001718982   -0.001031279
      3        1           0.000208664   -0.000033990   -0.002004279
      4        1          -0.000627916    0.000196055    0.000339294
      5        6           0.005096717   -0.003988602   -0.006905433
      6        1          -0.001811454    0.001578589    0.001717006
      7        1          -0.001811636    0.000698574    0.002225171
      8        6          -0.004866040    0.004122931    0.007138140
      9        1           0.001900893   -0.000728715   -0.002636234
     10        1           0.001900647   -0.001919572   -0.001948574
     11        6           0.004866040   -0.004122931   -0.007138140
     12        1          -0.001900893    0.000728715    0.002636234
     13        1          -0.001900647    0.001919572    0.001948574
     14        6          -0.005096717    0.003988602    0.006905433
     15        1           0.001811636   -0.000698574   -0.002225171
     16        1           0.001811454   -0.001578589   -0.001717006
     17        6          -0.004015826   -0.004309799   -0.007464934
     18        1          -0.000208664    0.000033990    0.002004279
     19        1           0.000627916   -0.000196055   -0.000339294
     20        1          -0.000208316    0.001718982    0.001031279
 -------------------------------------------------------------------
 Cartesian Forces:  Max     0.007464934 RMS     0.003265627

 GradGradGradGradGradGradGradGradGradGradGradGradGradGradGradGradGradGrad
 Berny optimization.
 Using GEDIIS/GDIIS optimizer.
 FormGI is forming the generalized inverse of G from B-inverse, IUseBI=4.
 Internal  Forces:  Max     0.006497924 RMS     0.001733910
 Search for a local minimum.
 Step number   2 out of a maximum of  110
 All quantities printed in internal units (Hartrees-Bohrs-Radians)
 Mixed Optimization -- RFO/linear search
 Update second derivatives using D2CorX and points    1    2
 DE= -1.04D-02 DEPred=-1.13D-02 R= 9.14D-01
 TightC=F SS=  1.41D+00  RLast= 2.98D-01 DXNew= 5.0454D-01 8.9385D-01
 Trust test= 9.14D-01 RLast= 2.98D-01 DXMaxT set to 5.05D-01
 ITU=  1  0
 Use linear search instead of GDIIS.
     Eigenvalues ---    0.00237   0.00237   0.00237   0.00237   0.00237
     Eigenvalues ---    0.03408   0.03408   0.03454   0.03454   0.04741
     Eigenvalues ---    0.04764   0.04769   0.04772   0.05413   0.05413
     Eigenvalues ---    0.05548   0.05556   0.08270   0.08275   0.08357
     Eigenvalues ---    0.08357   0.12172   0.12172   0.12235   0.12235
     Eigenvalues ---    0.15732   0.16000   0.16000   0.16000   0.16000
     Eigenvalues ---    0.16156   0.21965   0.21970   0.21982   0.23356
     Eigenvalues ---    0.28502   0.28519   0.28519   0.28519   0.29001
     Eigenvalues ---    0.36581   0.37230   0.37230   0.37230   0.37230
     Eigenvalues ---    0.37230   0.37230   0.37230   0.37230   0.37230
     Eigenvalues ---    0.37230   0.37230   0.37230   0.38112
 RFO step:  Lambda=-1.34504143D-03 EMin= 2.36824147D-03
 Quartic linear search produced a step of  0.02428.
 Iteration  1 RMS(Cart)=  0.01488402 RMS(Int)=  0.00005583
 Iteration  2 RMS(Cart)=  0.00004978 RMS(Int)=  0.00001603
 Iteration  3 RMS(Cart)=  0.00000000 RMS(Int)=  0.00001603
 ClnCor:  largest displacement from symmetrization is 2.24D-08 for atom     7.
 Variable       Old X    -DE/DX   Delta X   Delta X   Delta X     New X
                                 (Linear)    (Quad)   (Total)
    R1        2.06793   0.00172   0.00112   0.00612   0.00724   2.07517
    R2        2.06793   0.00172   0.00112   0.00612   0.00724   2.07517
    R3        2.06885   0.00062   0.00114   0.00315   0.00428   2.07313
    R4        2.93317  -0.00650   0.00056  -0.02250  -0.02194   2.91123
    R5        2.07070   0.00212   0.00118   0.00731   0.00849   2.07919
    R6        2.07070   0.00212   0.00118   0.00731   0.00849   2.07919
    R7        2.93271  -0.00535   0.00055  -0.01843  -0.01788   2.91483
    R8        2.07146   0.00247   0.00120   0.00830   0.00950   2.08095
    R9        2.07146   0.00247   0.00120   0.00830   0.00950   2.08095
   R10        2.93550  -0.00622   0.00061  -0.02144  -0.02082   2.91467
   R11        2.07146   0.00247   0.00120   0.00830   0.00950   2.08095
   R12        2.07146   0.00247   0.00120   0.00830   0.00950   2.08095
   R13        2.93271  -0.00535   0.00055  -0.01843  -0.01788   2.91483
   R14        2.07070   0.00212   0.00118   0.00731   0.00849   2.07919
   R15        2.07070   0.00212   0.00118   0.00731   0.00849   2.07919
   R16        2.93317  -0.00650   0.00056  -0.02250  -0.02194   2.91123
   R17        2.06793   0.00172   0.00112   0.00612   0.00724   2.07517
   R18        2.06885   0.00062   0.00114   0.00315   0.00428   2.07313
   R19        2.06793   0.00172   0.00112   0.00612   0.00724   2.07517
    A1        1.88876  -0.00122  -0.00053  -0.00661  -0.00721   1.88155
    A2        1.88703  -0.00026  -0.00057  -0.00321  -0.00378   1.88325
    A3        1.92602   0.00137   0.00037   0.00961   0.00996   1.93597
    A4        1.88703  -0.00026  -0.00057  -0.00321  -0.00378   1.88325
    A5        1.92602   0.00137   0.00037   0.00961   0.00996   1.93597
    A6        1.94732  -0.00109   0.00089  -0.00673  -0.00583   1.94149
    A7        1.90589   0.00075  -0.00012   0.00472   0.00460   1.91048
    A8        1.90589   0.00075  -0.00012   0.00472   0.00460   1.91048
    A9        1.97107  -0.00197   0.00147  -0.00330  -0.00186   1.96921
   A10        1.88180  -0.00140  -0.00070  -0.02088  -0.02157   1.86023
   A11        1.89858   0.00094  -0.00029   0.00685   0.00654   1.90512
   A12        1.89858   0.00094  -0.00029   0.00685   0.00654   1.90512
   A13        1.89861   0.00107  -0.00029   0.00689   0.00659   1.90519
   A14        1.89861   0.00107  -0.00029   0.00689   0.00659   1.90519
   A15        1.98082  -0.00263   0.00170  -0.00596  -0.00427   1.97655
   A16        1.88338  -0.00160  -0.00066  -0.02225  -0.02290   1.86048
   A17        1.90006   0.00105  -0.00026   0.00663   0.00636   1.90642
   A18        1.90006   0.00105  -0.00026   0.00663   0.00636   1.90642
   A19        1.90006   0.00105  -0.00026   0.00663   0.00636   1.90642
   A20        1.90006   0.00105  -0.00026   0.00663   0.00636   1.90642
   A21        1.98082  -0.00263   0.00170  -0.00596  -0.00427   1.97655
   A22        1.88338  -0.00160  -0.00066  -0.02225  -0.02290   1.86048
   A23        1.89861   0.00107  -0.00029   0.00689   0.00659   1.90519
   A24        1.89861   0.00107  -0.00029   0.00689   0.00659   1.90519
   A25        1.89858   0.00094  -0.00029   0.00685   0.00654   1.90512
   A26        1.89858   0.00094  -0.00029   0.00685   0.00654   1.90512
   A27        1.97107  -0.00197   0.00147  -0.00330  -0.00186   1.96921
   A28        1.88180  -0.00140  -0.00070  -0.02088  -0.02157   1.86023
   A29        1.90589   0.00075  -0.00012   0.00472   0.00460   1.91048
   A30        1.90589   0.00075  -0.00012   0.00472   0.00460   1.91048
   A31        1.92602   0.00137   0.00037   0.00961   0.00996   1.93597
   A32        1.94732  -0.00109   0.00089  -0.00673  -0.00583   1.94149
   A33        1.92602   0.00137   0.00037   0.00961   0.00996   1.93597
   A34        1.88703  -0.00026  -0.00057  -0.00321  -0.00378   1.88325
   A35        1.88876  -0.00122  -0.00053  -0.00661  -0.00721   1.88155
   A36        1.88703  -0.00026  -0.00057  -0.00321  -0.00378   1.88325
    D1       -3.12514   0.00053   0.00040   0.01188   0.01231  -3.11284
    D2       -1.07141  -0.00030  -0.00059  -0.00784  -0.00842  -1.07982
    D3        1.04332   0.00012  -0.00009   0.00202   0.00194   1.04526
    D4        1.07141   0.00030   0.00059   0.00784   0.00842   1.07982
    D5        3.12514  -0.00053  -0.00040  -0.01188  -0.01231   3.11284
    D6       -1.04332  -0.00012   0.00009  -0.00202  -0.00194  -1.04526
    D7       -1.02687   0.00042   0.00049   0.00986   0.01036  -1.01651
    D8        1.02687  -0.00042  -0.00049  -0.00986  -0.01036   1.01651
    D9        3.14159   0.00000   0.00000   0.00000   0.00000   3.14159
   D10        1.02368  -0.00036  -0.00057  -0.00944  -0.01001   1.01367
   D11       -1.02368   0.00036   0.00057   0.00944   0.01001  -1.01367
   D12        3.14159   0.00000   0.00000   0.00000   0.00000   3.14159
   D13       -1.09518  -0.00067  -0.00117  -0.01809  -0.01926  -1.11444
   D14        3.14064   0.00004  -0.00002   0.00079   0.00077   3.14141
   D15        1.02273  -0.00031  -0.00059  -0.00865  -0.00924   1.01348
   D16       -3.14064  -0.00004   0.00002  -0.00079  -0.00077  -3.14141
   D17        1.09518   0.00067   0.00117   0.01809   0.01926   1.11444
   D18       -1.02273   0.00031   0.00059   0.00865   0.00924  -1.01348
   D19        1.02450  -0.00037  -0.00055  -0.00959  -0.01014   1.01436
   D20       -1.02450   0.00037   0.00055   0.00959   0.01014  -1.01436
   D21        3.14159   0.00000   0.00000   0.00000   0.00000  -3.14159
   D22        3.14159   0.00000   0.00000   0.00000   0.00000   3.14159
   D23        1.09259   0.00074   0.00110   0.01918   0.02028   1.11288
   D24       -1.02450   0.00037   0.00055   0.00959   0.01014  -1.01436
   D25       -1.09259  -0.00074  -0.00110  -0.01918  -0.02028  -1.11288
   D26        3.14159   0.00000   0.00000   0.00000   0.00000   3.14159
   D27        1.02450  -0.00037  -0.00055  -0.00959  -0.01014   1.01436
   D28        1.02273  -0.00031  -0.00059  -0.00865  -0.00924   1.01348
   D29       -1.02273   0.00031   0.00059   0.00865   0.00924  -1.01348
   D30       -3.14159   0.00000   0.00000   0.00000   0.00000   3.14159
   D31        3.14064   0.00004  -0.00002   0.00079   0.00077   3.14141
   D32        1.09518   0.00067   0.00117   0.01809   0.01926   1.11444
   D33       -1.02368   0.00036   0.00057   0.00944   0.01001  -1.01367
   D34       -1.09518  -0.00067  -0.00117  -0.01809  -0.01926  -1.11444
   D35       -3.14064  -0.00004   0.00002  -0.00079  -0.00077  -3.14141
   D36        1.02368  -0.00036  -0.00057  -0.00944  -0.01001   1.01367
   D37        1.04332   0.00012  -0.00009   0.00202   0.00194   1.04526
   D38        3.14159   0.00000   0.00000   0.00000   0.00000   3.14159
   D39       -1.04332  -0.00012   0.00009  -0.00202  -0.00194  -1.04526
   D40       -3.12514   0.00053   0.00040   0.01188   0.01231  -3.11284
   D41       -1.02687   0.00042   0.00049   0.00986   0.01036  -1.01651
   D42        1.07141   0.00030   0.00059   0.00784   0.00842   1.07982
   D43       -1.07141  -0.00030  -0.00059  -0.00784  -0.00842  -1.07982
   D44        1.02687  -0.00042  -0.00049  -0.00986  -0.01036   1.01651
   D45        3.12514  -0.00053  -0.00040  -0.01188  -0.01231   3.11284
         Item               Value     Threshold  Converged?
 Maximum Force            0.006498     0.000450     NO 
 RMS     Force            0.001734     0.000300     NO 
 Maximum Displacement     0.037280     0.001800     NO 
 RMS     Displacement     0.014882     0.001200     NO 
 Predicted change in Energy=-6.789673D-04
 GradGradGradGradGradGradGradGradGradGradGradGradGradGradGradGradGradGrad

                          Input orientation:                          
 ---------------------------------------------------------------------
 Center     Atomic      Atomic             Coordinates (Angstroms)
 Number     Number       Type             X           Y           Z
 ---------------------------------------------------------------------
      1          6           0       -7.005424   -0.207604   -0.032749
      2          1           0       -6.663316   -1.250604   -0.064460
      3          1           0       -6.662998    0.286190   -0.951882
      4          1           0       -8.102439   -0.212123   -0.040969
      5          6           0       -6.459630    0.512722    1.214870
      6          1           0       -6.840196    1.544807    1.238144
      7          1           0       -6.840513    0.017089    2.120326
      8          6           0       -4.918181    0.540447    1.263437
      9          1           0       -4.536907    1.036660    0.357330
     10          1           0       -4.537224   -0.492493    1.240340
     11          6           0       -4.361163    1.259597    2.509024
     12          1           0       -4.742437    0.763384    3.415131
     13          1           0       -4.742121    2.292537    2.532121
     14          6           0       -2.819714    1.287323    2.557591
     15          1           0       -2.438832    1.782956    1.652135
     16          1           0       -2.439148    0.255237    2.534317
     17          6           0       -2.273921    2.007648    3.805210
     18          1           0       -2.616347    1.513855    4.724343
     19          1           0       -1.176905    2.012168    3.813430
     20          1           0       -2.616028    3.050648    3.836920
 ---------------------------------------------------------------------
                    Distance matrix (angstroms):
                    1          2          3          4          5
     1  C    0.000000
     2  H    1.098131   0.000000
     3  H    1.098131   1.774613   0.000000
     4  H    1.097056   1.774844   1.774844   0.000000
     5  C    1.540557   2.188033   2.188033   2.191199   0.000000
     6  H    2.171040   3.089075   2.532139   2.513203   1.100260
     7  H    2.171040   2.532139   3.089075   2.513203   1.100260
     8  C    2.568319   2.831373   2.831373   3.522405   1.542463
     9  H    2.791761   3.151365   2.607202   3.798832   2.169505
    10  H    2.791761   2.607202   3.151365   3.798832   2.169505
    11  C    3.950367   4.268938   4.268938   4.760837   2.576086
    12  H    4.236957   4.455724   4.794483   4.917912   2.802272
    13  H    4.236957   4.794483   4.455724   4.917912   2.802272
    14  C    5.144398   5.299952   5.299952   6.075198   3.956248
    15  H    5.258795   5.476810   5.183126   6.238862   4.239283
    16  H    5.258795   5.183126   5.476810   6.238862   4.239283
    17  C    6.482623   6.697562   6.697562   7.327490   5.144398
    18  H    6.697562   6.852213   7.078282   7.468896   5.299952
    19  H    7.327490   7.468896   7.468896   8.232064   6.075198
    20  H    6.697562   7.078282   6.852213   7.468896   5.299952
                    6          7          8          9         10
     6  H    0.000000
     7  H    1.764134   0.000000
     8  C    2.168760   2.168760   0.000000
     9  H    2.517775   3.074781   1.101194   0.000000
    10  H    3.074781   2.517775   1.101194   1.765791   0.000000
    11  C    2.800373   2.800373   1.542378   2.170340   2.170340
    12  H    3.122578   2.575927   2.170340   3.076861   2.519733
    13  H    2.575927   3.122578   2.170340   2.519733   3.076861
    14  C    4.239283   4.239283   2.576086   2.802272   2.802272
    15  H    4.427202   4.765741   2.800373   2.575927   3.122578
    16  H    4.765741   4.427202   2.800373   3.122578   2.575927
    17  C    5.258795   5.258795   3.950367   4.236957   4.236957
    18  H    5.476810   5.183126   4.268938   4.794483   4.455724
    19  H    6.238862   6.238862   4.760837   4.917912   4.917912
    20  H    5.183126   5.476810   4.268938   4.455724   4.794483
                   11         12         13         14         15
    11  C    0.000000
    12  H    1.101194   0.000000
    13  H    1.101194   1.765791   0.000000
    14  C    1.542463   2.169505   2.169505   0.000000
    15  H    2.168760   3.074781   2.517775   1.100260   0.000000
    16  H    2.168760   2.517775   3.074781   1.100260   1.764134
    17  C    2.568319   2.791761   2.791761   1.540557   2.171040
    18  H    2.831373   2.607202   3.151365   2.188033   3.089075
    19  H    3.522405   3.798832   3.798832   2.191199   2.513203
    20  H    2.831373   3.151365   2.607202   2.188033   2.532139
                   16         17         18         19         20
    16  H    0.000000
    17  C    2.171040   0.000000
    18  H    2.532139   1.098131   0.000000
    19  H    2.513203   1.097056   1.774844   0.000000
    20  H    3.089075   1.098131   1.774613   1.774844   0.000000
 Stoichiometry    C6H14
 Framework group  C2H[SGH(C6H2),X(H12)]
 Deg. of freedom    16
 Full point group                 C2H     NOp   4
 Largest Abelian subgroup         C2H     NOp   4
 Largest concise Abelian subgroup C2H     NOp   4
                         Standard orientation:                         
 ---------------------------------------------------------------------
 Center     Atomic      Atomic             Coordinates (Angstroms)
 Number     Number       Type             X           Y           Z
 ---------------------------------------------------------------------
      1          6           0        1.427320    2.910130    0.000000
      2          1           0        0.912741    3.302288    0.887307
      3          1           0        0.912741    3.302288   -0.887307
      4          1           0        2.449858    3.307554    0.000000
      5          6           0        1.427320    1.369574    0.000000
      6          1           0        1.973339    1.002977   -0.882067
      7          1           0        1.973339    1.002977    0.882067
      8          6           0        0.005664    0.771168    0.000000
      9          1           0       -0.540819    1.137884   -0.882895
     10          1           0       -0.540819    1.137884    0.882895
     11          6           0       -0.005664   -0.771168    0.000000
     12          1           0        0.540819   -1.137884    0.882895
     13          1           0        0.540819   -1.137884   -0.882895
     14          6           0       -1.427320   -1.369574    0.000000
     15          1           0       -1.973339   -1.002977   -0.882067
     16          1           0       -1.973339   -1.002977    0.882067
     17          6           0       -1.427320   -2.910130    0.000000
     18          1           0       -0.912741   -3.302288    0.887307
     19          1           0       -2.449858   -3.307554    0.000000
     20          1           0       -0.912741   -3.302288   -0.887307
 ---------------------------------------------------------------------
 Rotational constants (GHZ):          14.4317393           1.1184924           1.0799796
 Standard basis: 6-31G (6D, 7F)
 There are    29 symmetry adapted cartesian basis functions of AG  symmetry.
 There are    12 symmetry adapted cartesian basis functions of BG  symmetry.
 There are    12 symmetry adapted cartesian basis functions of AU  symmetry.
 There are    29 symmetry adapted cartesian basis functions of BU  symmetry.
 There are    29 symmetry adapted basis functions of AG  symmetry.
 There are    12 symmetry adapted basis functions of BG  symmetry.
 There are    12 symmetry adapted basis functions of AU  symmetry.
 There are    29 symmetry adapted basis functions of BU  symmetry.
    82 basis functions,   188 primitive gaussians,    82 cartesian basis functions
    25 alpha electrons       25 beta electrons
       nuclear repulsion energy       242.3638594308 Hartrees.
 NAtoms=   20 NActive=   20 NUniq=    7 SFac= 4.00D+00 NAtFMM=   60 NAOKFM=F Big=F
 Integral buffers will be    131072 words long.
 Raffenetti 2 integral format.
 Two-electron integral symmetry is turned on.
 One-electron integrals computed using PRISM.
 NBasis=    82 RedAO= T EigKep=  4.52D-03  NBF=    29    12    12    29
 NBsUse=    82 1.00D-06 EigRej= -1.00D+00 NBFU=    29    12    12    29
 Initial guess from the checkpoint file:  "C:\Users\tkmeldrum\Documents\MDworking\C6H14.chk"
 B after Tr=     0.000000    0.000000    0.000000
         Rot=    1.000000    0.000000    0.000000    0.000411 Ang=   0.05 deg.
 Initial guess orbital symmetries:
       Occupied  (BU) (AG) (AG) (BU) (BU) (AG) (AG) (BU) (AG) (BU)
                 (AG) (BU) (AU) (BG) (AG) (BU) (AU) (BU) (AG) (BG)
                 (BU) (AU) (BG) (AG) (AG)
       Virtual   (AG) (BU) (AU) (BU) (AG) (BG) (BU) (AG) (BU) (AU)
                 (AG) (BG) (AU) (BG) (BU) (AG) (BU) (AG) (BU) (AG)
                 (BU) (AG) (BG) (AU) (AU) (BU) (AG) (BU) (BG) (BU)
                 (AG) (AG) (AU) (BU) (BG) (BU) (AU) (AG) (BG) (BU)
                 (AG) (BU) (AU) (AG) (BU) (BG) (AG) (BU) (AG) (AU)
                 (AG) (BU) (BG) (AG) (BU) (AG) (BU)
 ExpMin= 1.61D-01 ExpMax= 3.05D+03 ExpMxC= 4.57D+02 IAcc=3 IRadAn=         5 AccDes= 0.00D+00
 Harris functional with IExCor=  402 and IRadAn=       5 diagonalized for initial guess.
 HarFok:  IExCor=  402 AccDes= 0.00D+00 IRadAn=         5 IDoV= 1 UseB2=F ITyADJ=14
 ICtDFT=  3500011 ScaDFX=  1.000000  1.000000  1.000000  1.000000
 FoFCou: FMM=F IPFlag=           0 FMFlag=      100000 FMFlg1=           0
         NFxFlg=           0 DoJE=T BraDBF=F KetDBF=T FulRan=T
         wScrn=  0.000000 ICntrl=       500 IOpCl=  0 I1Cent=   200000004 NGrid=           0
         NMat0=    1 NMatS0=      1 NMatT0=    0 NMatD0=    1 NMtDS0=    0 NMtDT0=    0
 Petite list used in FoFCou.
 Keep R1 ints in memory in symmetry-blocked form, NReq=7299329.
 Requested convergence on RMS density matrix=1.00D-08 within 128 cycles.
 Requested convergence on MAX density matrix=1.00D-06.
 Requested convergence on             energy=1.00D-06.
 No special actions if energy rises.
 Integral accuracy reduced to 1.0D-05 until final iterations.
 Initial convergence to 1.0D-05 achieved.  Increase integral accuracy.
 SCF Done:  E(RB3LYP) =  -237.029048568     A.U. after    9 cycles
            NFock=  9  Conv=0.45D-08     -V/T= 2.0063
 Calling FoFJK, ICntrl=      2127 FMM=F ISym2X=1 I1Cent= 0 IOpClX= 0 NMat=1 NMatS=1 NMatT=0.
 ***** Axes restored to original set *****
 -------------------------------------------------------------------
 Center     Atomic                   Forces (Hartrees/Bohr)
 Number     Number              X              Y              Z
 -------------------------------------------------------------------
      1        6          -0.000041394    0.000836917    0.001449315
      2        1          -0.000265118    0.000559968   -0.000237442
      3        1          -0.000265334   -0.000485478    0.000366251
      4        1           0.000533720   -0.000209477   -0.000362570
      5        6           0.001224253   -0.001244326   -0.002154422
      6        1          -0.000055234   -0.000352605    0.000397341
      7        1          -0.000055053    0.000520411   -0.000106783
      8        6          -0.001430608    0.001219945    0.002112127
      9        1           0.000083211   -0.000540690    0.000072893
     10        1           0.000083392    0.000333382   -0.000431840
     11        6           0.001430608   -0.001219945   -0.002112127
     12        1          -0.000083211    0.000540690   -0.000072893
     13        1          -0.000083392   -0.000333382    0.000431840
     14        6          -0.001224253    0.001244326    0.002154422
     15        1           0.000055053   -0.000520411    0.000106783
     16        1           0.000055234    0.000352605   -0.000397341
     17        6           0.000041394   -0.000836917   -0.001449315
     18        1           0.000265334    0.000485478   -0.000366251
     19        1          -0.000533720    0.000209477    0.000362570
[...]
 ! D34   D(13,11,14,15)        -64.372          -DE/DX =    0.0                 !
 ! D35   D(13,11,14,16)       -179.995          -DE/DX =    0.0                 !
 ! D36   D(13,11,14,17)         57.8165         -DE/DX =    0.0                 !
 ! D37   D(11,14,17,18)         59.83           -DE/DX =    0.0                 !
 ! D38   D(11,14,17,19)       -180.0            -DE/DX =    0.0                 !
 ! D39   D(11,14,17,20)        -59.83           -DE/DX =    0.0                 !
 ! D40   D(15,14,17,18)       -178.1785         -DE/DX =    0.0                 !
 ! D41   D(15,14,17,19)        -58.0085         -DE/DX =    0.0                 !
 ! D42   D(15,14,17,20)         62.1616         -DE/DX =    0.0                 !
 ! D43   D(16,14,17,18)        -62.1616         -DE/DX =    0.0                 !
 ! D44   D(16,14,17,19)         58.0085         -DE/DX =    0.0                 !
 ! D45   D(16,14,17,20)        178.1785         -DE/DX =    0.0                 !
 --------------------------------------------------------------------------------
 GradGradGradGradGradGradGradGradGradGradGradGradGradGradGradGradGradGrad

                          Input orientation:                          
 ---------------------------------------------------------------------
 Center     Atomic      Atomic             Coordinates (Angstroms)
 Number     Number       Type             X           Y           Z
 ---------------------------------------------------------------------
      1          6           0       -7.005481   -0.206756   -0.031281
      2          1           0       -6.665060   -1.249585   -0.065982
      3          1           0       -6.664742    0.284363   -0.951761
      4          1           0       -8.101915   -0.212142   -0.041002
      5          6           0       -6.457382    0.511334    1.212467
      6          1           0       -6.839600    1.542657    1.239389
      7          1           0       -6.839915    0.019242    2.119086
      8          6           0       -4.918816    0.541360    1.265017
      9          1           0       -4.535584    1.033936    0.357725
     10          1           0       -4.535900   -0.490789    1.238179
     11          6           0       -4.360528    1.258684    2.507444
     12          1           0       -4.743760    0.766108    3.414736
     13          1           0       -4.743444    2.290834    2.534282
     14          6           0       -2.821963    1.288711    2.559994
     15          1           0       -2.439429    1.780803    1.653375
     16          1           0       -2.439744    0.257387    2.533072
     17          6           0       -2.273863    2.006800    3.803742
     18          1           0       -2.614602    1.515682    4.724222
     19          1           0       -1.177429    2.012187    3.813463
     20          1           0       -2.614285    3.049630    3.838443
 ---------------------------------------------------------------------
                    Distance matrix (angstroms):
                    1          2          3          4          5
     1  C    0.000000
     2  H    1.097535   0.000000
     3  H    1.097535   1.771328   0.000000
     4  H    1.096490   1.772418   1.772418   0.000000
     5  C    1.537198   2.185955   2.185955   2.190683   0.000000
     6  H    2.168540   3.087244   2.532788   2.512402   1.100202
     7  H    2.168540   2.532788   3.087244   2.512402   1.100202
     8  C    2.567925   2.833445   2.833445   3.522154   1.539755
     9  H    2.791242   3.150978   2.609584   3.798738   2.167257
    10  H    2.791242   2.609584   3.150978   3.798738   2.167257
    11  C    3.948217   4.269051   4.269051   4.759819   2.575323
    12  H    4.235196   4.457556   4.794637   4.916941   2.802034
    13  H    4.235196   4.794637   4.457556   4.916941   2.802034
    14  C    5.143243   5.301706   5.301706   6.074178   3.954290
    15  H    5.257118   5.476805   5.184529   6.237507   4.236732
    16  H    5.257118   5.184529   5.476805   6.237507   4.236732
    17  C    6.480389   6.697867   6.697867   7.326114   5.143243
    18  H    6.697867   6.855578   7.080717   7.470163   5.301706
    19  H    7.326114   7.470163   7.470163   8.231224   6.074178
    20  H    6.697867   7.080717   6.855578   7.470163   5.301706
                    6          7          8          9         10
     6  H    0.000000
     7  H    1.759166   0.000000
     8  C    2.166256   2.166256   0.000000
     9  H    2.518852   3.072774   1.101216   0.000000
    10  H    3.072774   2.518852   1.101216   1.760678   0.000000
    11  C    2.799000   2.799000   1.539436   2.168513   2.168513
    12  H    3.118928   2.574954   2.168513   3.075774   2.521983
    13  H    2.574954   3.118928   2.168513   2.521983   3.075774
    14  C    4.236732   4.236732   2.575323   2.802034   2.802034
    15  H    4.426014   4.762800   2.799000   2.574954   3.118928
    16  H    4.762800   4.426014   2.799000   3.118928   2.574954
    17  C    5.257118   5.257118   3.948217   4.235196   4.235196
    18  H    5.476805   5.184529   4.269051   4.794637   4.457556
    19  H    6.237507   6.237507   4.759819   4.916941   4.916941
    20  H    5.184529   5.476805   4.269051   4.457556   4.794637
                   11         12         13         14         15
    11  C    0.000000
    12  H    1.101216   0.000000
    13  H    1.101216   1.760678   0.000000
    14  C    1.539755   2.167257   2.167257   0.000000
    15  H    2.166256   3.072774   2.518852   1.100202   0.000000
    16  H    2.166256   2.518852   3.072774   1.100202   1.759166
    17  C    2.567925   2.791242   2.791242   1.537198   2.168540
    18  H    2.833445   2.609584   3.150978   2.185955   3.087244
    19  H    3.522154   3.798738   3.798738   2.190683   2.512402
    20  H    2.833445   3.150978   2.609584   2.185955   2.532788
                   16         17         18         19         20
    16  H    0.000000
    17  C    2.168540   0.000000
    18  H    2.532788   1.097535   0.000000
    19  H    2.512402   1.096490   1.772418   0.000000
    20  H    3.087244   1.097535   1.771328   1.772418   0.000000
 Stoichiometry    C6H14
 Framework group  C2H[SGH(C6H2),X(H12)]
 Deg. of freedom    16
 Full point group                 C2H     NOp   4
 Largest Abelian subgroup         C2H     NOp   4
 Largest concise Abelian subgroup C2H     NOp   4
                         Standard orientation:                         
 ---------------------------------------------------------------------
 Center     Atomic      Atomic             Coordinates (Angstroms)
 Number     Number       Type             X           Y           Z
 ---------------------------------------------------------------------
      1          6           0        1.420892    2.912031    0.000000
      2          1           0        0.906044    3.305877    0.885664
      3          1           0        0.906044    3.305877   -0.885664
      4          1           0        2.441299    3.313355    0.000000
      5          6           0        1.420892    1.374834    0.000000
      6          1           0        1.970336    1.007560   -0.879583
      7          1           0        1.970336    1.007560    0.879583
      8          6           0        0.005032    0.769701    0.000000
      9          1           0       -0.545186    1.137045   -0.880339
     10          1           0       -0.545186    1.137045    0.880339
     11          6           0       -0.005032   -0.769701    0.000000
     12          1           0        0.545186   -1.137045    0.880339
     13          1           0        0.545186   -1.137045   -0.880339
     14          6           0       -1.420892   -1.374834    0.000000
     15          1           0       -1.970336   -1.007560   -0.879583
     16          1           0       -1.970336   -1.007560    0.879583
     17          6           0       -1.420892   -2.912031    0.000000
     18          1           0       -0.906044   -3.305877    0.885664
     19          1           0       -2.441299   -3.313355    0.000000
     20          1           0       -0.906044   -3.305877   -0.885664
 ---------------------------------------------------------------------
 Rotational constants (GHZ):          14.5075398           1.1189699           1.0806277

 **********************************************************************

            Population analysis using the SCF Density.

 **********************************************************************

 Orbital symmetries:
       Occupied  (BU) (AG) (AG) (BU) (BU) (AG) (AG) (BU) (AG) (BU)
                 (AG) (BU) (AU) (BG) (AG) (BU) (AU) (BU) (AG) (BG)
                 (BU) (AU) (AG) (BG) (AG)
       Virtual   (AG) (BU) (AU) (BU) (AG) (BG) (AG) (BU) (BU) (AU)
                 (AG) (BG) (AU) (BG) (BU) (AG) (BU) (AG) (BU) (AG)
                 (BU) (AG) (BG) (AU) (AU) (BU) (AG) (BU) (BG) (AG)
                 (BU) (AG) (AU) (BU) (BG) (BU) (AU) (AG) (BG) (BU)
                 (AG) (BU) (AU) (AG) (BU) (BG) (AG) (BU) (AG) (AU)
                 (AG) (BU) (BG) (AG) (BU) (AG) (BU)
 The electronic state is 1-AG.
 Alpha  occ. eigenvalues --  -10.17204 -10.17202 -10.16960 -10.16947 -10.16465
 Alpha  occ. eigenvalues --  -10.16465  -0.80066  -0.76323  -0.70535  -0.63632
 Alpha  occ. eigenvalues --   -0.58049  -0.57276  -0.47461  -0.44177  -0.43041
 Alpha  occ. eigenvalues --   -0.41728  -0.39611  -0.37677  -0.37524  -0.35188
 Alpha  occ. eigenvalues --   -0.33751  -0.32392  -0.32021  -0.31594  -0.30510
 Alpha virt. eigenvalues --    0.09165   0.10339   0.12214   0.13188   0.13586
 Alpha virt. eigenvalues --    0.16213   0.16803   0.16908   0.18572   0.19113
 Alpha virt. eigenvalues --    0.19297   0.19884   0.20716   0.20826   0.22827
 Alpha virt. eigenvalues --    0.24153   0.26210   0.27995   0.29104   0.51862
 Alpha virt. eigenvalues --    0.53305   0.54030   0.57250   0.58057   0.60044
 Alpha virt. eigenvalues --    0.60892   0.62231   0.63946   0.67062   0.69486
 Alpha virt. eigenvalues --    0.69576   0.73760   0.77615   0.80093   0.82240
 Alpha virt. eigenvalues --    0.83400   0.88346   0.89575   0.92713   0.93794
 Alpha virt. eigenvalues --    0.94771   0.96130   0.97556   0.97874   0.99539
 Alpha virt. eigenvalues --    1.00428   1.00820   1.01416   1.03804   1.06702
 Alpha virt. eigenvalues --    1.08778   1.29969   1.32985   1.41112   1.46394
 Alpha virt. eigenvalues --    1.55320   1.82789
          Condensed to atoms (all electrons):
               1          2          3          4          5          6
     1  C    5.086755   0.376335   0.376335   0.368097   0.325908  -0.041264
     2  H    0.376335   0.597861  -0.034442  -0.033061  -0.037892   0.005242
     3  H    0.376335  -0.034442   0.597861  -0.033061  -0.037892  -0.004743
     4  H    0.368097  -0.033061  -0.033061   0.599369  -0.029387  -0.002670
     5  C    0.325908  -0.037892  -0.037892  -0.029387   5.053775   0.378681
     6  H   -0.041264   0.005242  -0.004743  -0.002670   0.378681   0.626173
     7  H   -0.041264  -0.004743   0.005242  -0.002670   0.378681  -0.041729
     8  C   -0.044861  -0.004408  -0.004408   0.004323   0.331989  -0.043795
     9  H   -0.002492  -0.000499   0.004958  -0.000016  -0.044256  -0.005819
    10  H   -0.002492   0.004958  -0.000499  -0.000016  -0.044256   0.005936
    11  C    0.004168   0.000048   0.000048  -0.000160  -0.036325  -0.003113
    12  H    0.000047   0.000001   0.000006   0.000002  -0.003088  -0.000566
    13  H    0.000047   0.000006   0.000001   0.000002  -0.003088   0.005188
    14  C   -0.000154   0.000001   0.000001   0.000001   0.003972   0.000033
    15  H    0.000002   0.000000  -0.000001   0.000000   0.000033   0.000003
    16  H    0.000002  -0.000001   0.000000   0.000000   0.000033   0.000006
    17  C    0.000001   0.000000   0.000000   0.000000  -0.000154   0.000002
    18  H    0.000000   0.000000   0.000000   0.000000   0.000001   0.000000
    19  H    0.000000   0.000000   0.000000   0.000000   0.000001   0.000000
    20  H    0.000000   0.000000   0.000000   0.000000   0.000001  -0.000001
               7          8          9         10         11         12
     1  C   -0.041264  -0.044861  -0.002492  -0.002492   0.004168   0.000047
     2  H   -0.004743  -0.004408  -0.000499   0.004958   0.000048   0.000001
     3  H    0.005242  -0.004408   0.004958  -0.000499   0.000048   0.000006
     4  H   -0.002670   0.004323  -0.000016  -0.000016  -0.000160   0.000002
     5  C    0.378681   0.331989  -0.044256  -0.044256  -0.036325  -0.003088
     6  H   -0.041729  -0.043795  -0.005819   0.005936  -0.003113  -0.000566
     7  H    0.626173  -0.043795   0.005936  -0.005819  -0.003113   0.005188
     8  C   -0.043795   5.086301   0.375694   0.375694   0.322919  -0.043292
     9  H    0.005936   0.375694   0.631952  -0.042526  -0.043292   0.005893
    10  H   -0.005819   0.375694  -0.042526   0.631952  -0.043292  -0.005732
    11  C   -0.003113   0.322919  -0.043292  -0.043292   5.086301   0.375694
    12  H    0.005188  -0.043292   0.005893  -0.005732   0.375694   0.631952
    13  H   -0.000566  -0.043292  -0.005732   0.005893   0.375694  -0.042526
    14  C    0.000033  -0.036325  -0.003088  -0.003088   0.331989  -0.044256
    15  H    0.000006  -0.003113   0.005188  -0.000566  -0.043795   0.005936
    16  H    0.000003  -0.003113  -0.000566   0.005188  -0.043795  -0.005819
    17  C    0.000002   0.004168   0.000047   0.000047  -0.044861  -0.002492
    18  H   -0.000001   0.000048   0.000006   0.000001  -0.004408   0.004958
    19  H    0.000000  -0.000160   0.000002   0.000002   0.004323  -0.000016
    20  H    0.000000   0.000048   0.000001   0.000006  -0.004408  -0.000499
              13         14         15         16         17         18
     1  C    0.000047  -0.000154   0.000002   0.000002   0.000001   0.000000
     2  H    0.000006   0.000001   0.000000  -0.000001   0.000000   0.000000
     3  H    0.000001   0.000001  -0.000001   0.000000   0.000000   0.000000
     4  H    0.000002   0.000001   0.000000   0.000000   0.000000   0.000000
     5  C   -0.003088   0.003972   0.000033   0.000033  -0.000154   0.000001
     6  H    0.005188   0.000033   0.000003   0.000006   0.000002   0.000000
     7  H   -0.000566   0.000033   0.000006   0.000003   0.000002  -0.000001
     8  C   -0.043292  -0.036325  -0.003113  -0.003113   0.004168   0.000048
     9  H   -0.005732  -0.003088   0.005188  -0.000566   0.000047   0.000006
    10  H    0.005893  -0.003088  -0.000566   0.005188   0.000047   0.000001
    11  C    0.375694   0.331989  -0.043795  -0.043795  -0.044861  -0.004408
    12  H   -0.042526  -0.044256   0.005936  -0.005819  -0.002492   0.004958
    13  H    0.631952  -0.044256  -0.005819   0.005936  -0.002492  -0.000499
    14  C   -0.044256   5.053775   0.378681   0.378681   0.325908  -0.037892
    15  H   -0.005819   0.378681   0.626173  -0.041729  -0.041264   0.005242
    16  H    0.005936   0.378681  -0.041729   0.626173  -0.041264  -0.004743
    17  C   -0.002492   0.325908  -0.041264  -0.041264   5.086755   0.376335
    18  H   -0.000499  -0.037892   0.005242  -0.004743   0.376335   0.597861
    19  H   -0.000016  -0.029387  -0.002670  -0.002670   0.368097  -0.033061
    20  H    0.004958  -0.037892  -0.004743   0.005242   0.376335  -0.034442
              19         20
     1  C    0.000000   0.000000
     2  H    0.000000   0.000000
     3  H    0.000000   0.000000
     4  H    0.000000   0.000000
     5  C    0.000001   0.000001
     6  H    0.000000  -0.000001
     7  H    0.000000   0.000000
     8  C   -0.000160   0.000048
     9  H    0.000002   0.000001
    10  H    0.000002   0.000006
    11  C    0.004323  -0.004408
    12  H   -0.000016  -0.000499
    13  H   -0.000016   0.004958
    14  C   -0.029387  -0.037892
    15  H   -0.002670  -0.004743
    16  H   -0.002670   0.005242
    17  C    0.368097   0.376335
    18  H   -0.033061  -0.034442
    19  H    0.599369  -0.033061
    20  H   -0.033061   0.597861
 Mulliken charges:
               1
     1  C   -0.405167
     2  H    0.130595
     3  H    0.130595
     4  H    0.129247
     5  C   -0.236737
     6  H    0.122436
     7  H    0.122436
     8  C   -0.230622
     9  H    0.118608
    10  H    0.118608
    11  C   -0.230622
    12  H    0.118608
    13  H    0.118608
    14  C   -0.236737
    15  H    0.122436
    16  H    0.122436
    17  C   -0.405167
    18  H    0.130595
    19  H    0.129247
    20  H    0.130595
 Sum of Mulliken charges =   0.00000
 Mulliken charges with hydrogens summed into heavy atoms:
               1
     1  C   -0.014729
     5  C    0.008135
     8  C    0.006595
    11  C    0.006595
    14  C    0.008135
    17  C   -0.014729
 Electronic spatial extent (au):  <R**2>=           1150.7298
 Charge=              0.0000 electrons
 Dipole moment (field-independent basis, Debye):
    X=              0.0000    Y=              0.0000    Z=              0.0000  Tot=              0.0000
 Quadrupole moment (field-independent basis, Debye-Ang):
   XX=            -41.7338   YY=            -42.4100   ZZ=            -41.0964
   XY=             -0.0265   XZ=              0.0000   YZ=              0.0000
 Traceless Quadrupole moment (field-independent basis, Debye-Ang):
   XX=              0.0130   YY=             -0.6633   ZZ=              0.6503
   XY=             -0.0265   XZ=              0.0000   YZ=              0.0000
 Octapole moment (field-independent basis, Debye-Ang**2):
  XXX=              0.0000  YYY=              0.0000  ZZZ=              0.0000  XYY=              0.0000
  XXY=              0.0000  XXZ=              0.0000  XZZ=              0.0000  YZZ=              0.0000
  YYZ=              0.0000  XYZ=              0.0000
 Hexadecapole moment (field-independent basis, Debye-Ang**3):
 XXXX=           -437.9390 YYYY=          -1096.6985 ZZZZ=            -84.6306 XXXY=           -261.0976
 XXXZ=              0.0000 YYYX=           -271.2914 YYYZ=              0.0000 ZZZX=              0.0000
 ZZZY=              0.0000 XXYY=           -250.8266 XXZZ=            -87.5237 YYZZ=           -190.1018
 XXYZ=              0.0000 YYXZ=              0.0000 ZZXY=            -90.8599
 N-N= 2.425528784384D+02 E-N=-1.032859754875D+03  KE= 2.355763820613D+02
 Symmetry AG   KE= 1.134047766480D+02
 Symmetry BG   KE= 5.969960055210D+00
 Symmetry AU   KE= 5.791666158351D+00
 Symmetry BU   KE= 1.104099791998D+02
 1|1|UNPC-6424705A076343F|FOpt|RB3LYP|6-31G|C6H14|TKMELDRUM|14-Mar-2023
 |0||# opt b3lyp/6-31g geom=connectivity||Title Card Required||0,1|C,-7
 .0054813496,-0.2067560691,-0.0312809254|H,-6.6650598548,-1.2495853456,
 -0.0659815803|H,-6.6647422119,0.2843626105,-0.9517607526|H,-8.10191517
 17,-0.2121424074,-0.0410019003|C,-6.4573815631,0.511333659,1.212467409
 6|H,-6.8395999119,1.542657375,1.2393887245|H,-6.8399153738,0.019241549
 9,2.1190861113|C,-4.9188160587,0.5413600686,1.2650173741|H,-4.53558431
 38,1.0339361723,0.3577248529|H,-4.5359000469,-0.4907893937,1.238178550
 4|C,-4.3605283217,1.2586842114,2.5074435603|H,-4.7437600666,0.76610810
 77,3.4147360815|H,-4.7434443335,2.2908336737,2.534282384|C,-2.82196281
 73,1.288710621,2.5599935248|H,-2.4394290066,1.7808027301,1.6533748231|
 H,-2.4397444685,0.257386905,2.5330722099|C,-2.2738630308,2.0068003491,
 3.8037418598|H,-2.6146021685,1.5156816695,4.724221687|H,-1.1774292087,
 2.0121866874,3.8134628347|H,-2.6142845256,3.0496296256,3.8384425147||V
 ersion=EM64W-G16RevB.01|State=1-AG|HF=-237.0290987|RMSD=3.401e-009|RMS
 F=5.861e-005|Dipole=0.,0.,0.|Quadrupole=-0.0674093,0.2585652,-0.191155
 9,-0.0910116,-0.1578069,-0.3895399|PG=C02H [SGH(C6H2),X(H12)]||@


 FESTINA LENTE!
     - IMPERATOR AUGUSTUS 
 Job cpu time:       0 days  0 hours  1 minutes 26.0 seconds.
 Elapsed time:       0 days  0 hours  1 minutes 22.3 seconds.
 File lengths (MBytes):  RWF=     10 Int=      0 D2E=      0 Chk=      2 Scr=      1
 Normal termination of Gaussian 16 at Tue Mar 14 09:57:49 2023.
